<LesHouchesEvents version="1.0">
<header>
<!--
#*********************************************************************
#                                                                    *
#                            MadGraph 5                              *
#                                                                    *
#                           Going Beyond                             *
#                                                                    *
#                   http://madgraph.hep.uiuc.edu                     *
#                   http://madgraph.phys.ucl.ac.be                   *
#                   http://madgraph.roma2.infn.it                    *
#                                                                    *
#                         The MadGraph team                          *
#                                                                    *
#....................................................................*
#                                                                    *
# This file contains all the information necessary to reproduce      *
# the events generated:                                              *
#                                                                    *
# 1. software version                                                *
# 2. proc_card          : code generation info including model       *
# 3. param_card         : model primary parameters in the LH format  *
# 4. run_card           : running parameters (collider and cuts)     *
# 5. pythia_card        : present only if pythia has been run        *
# 6. pgs_card           : present only if pgs has been run           *
# 7. delphes_cards      : present only if delphes has been run       *
#                                                                    *
#                                                                    *
#*********************************************************************
-->
<MGVersion>
# MG    version    : 5.1.4.3
</MGVersion>
<MG5ProcCard>
#************************************************************
#*                        MadGraph 5                        *
#*                                                          *
#*                *                       *                 *
#*                  *        * *        *                   *
#*                    * * * * 5 * * * *                     *
#*                  *        * *        *                   *
#*                *                       *                 *
#*                                                          *
#*                                                          *
#*         VERSION 1.4.3                 2012-03-08         *
#*                                                          *
#*    The MadGraph Development Team - Please visit us at    *
#*    https://server06.fynu.ucl.ac.be/projects/madgraph     *
#*                                                          *
#************************************************************
#*                                                          *
#*               Command File for MadGraph 5                *
#*                                                          *
#*     run as ./bin/mg5  filename                           *
#*                                                          *
#************************************************************
import model sm
generate p p > t t~, (t > b w+, w+ > l+ vl), (t~ > b~ w-, w- > j j)
add process p p > t t~, (t > b w+, w+ > j j), (t~ > b~ w-, w- > l- vl~)
output
</MG5ProcCard>
<MGProcCard>
#*********************************************************************
#                        MadGraph/MadEvent                           *
#                   http://madgraph.hep.uiuc.edu                     *
#                                                                    *
#                          proc_card.dat                             *
#*********************************************************************
#                                                                    *
#            This Files is generated by MADGRAPH 5                   *
#                                                                    *
# WARNING: This Files is generated for MADEVENT (compatibility issue)*
#          This files is NOT a valid MG4 proc_card.dat               *
#          Running this in MG4 will NEVER reproduce the result of MG5*
#                                                                    *
#*********************************************************************
#*********************************************************************
# Process(es) requested : mg2 input                                  *
#*********************************************************************
# Begin PROCESS # This is TAG. Do not modify this line
p p > t t~ , (t > b w+ , w+ > l+ vl) , (t~ > b~ w- , w- > j j)           #Process
# Be carefull the coupling are here in MG5 convention
end_coup           # End the couplings input
done               # this tells MG there are no more procs
# End PROCESS  # This is TAG. Do not modify this line
#*********************************************************************
# Model information                                                  *
#*********************************************************************
# Begin MODEL  # This is TAG. Do not modify this line
sm
# End   MODEL  # This is TAG. Do not modify this line
#*********************************************************************
# Start multiparticle definitions                                    *
#*********************************************************************
# Begin MULTIPARTICLES # This is TAG. Do not modify this line
# End  MULTIPARTICLES # This is TAG. Do not modify this line
</MGProcCard>
<slha>
######################################################################
## PARAM_CARD AUTOMATICALY GENERATED BY MG5 FOLLOWING UFO MODEL   ####
######################################################################
###################################
## INFORMATION FOR MASS
###################################
Block mass 
    5 4.700000e+00 # MB 
    6 1.730000e+02 # MT 
   15 1.777000e+00 # MTA 
   23 9.118800e+01 # MZ 
   25 1.200000e+02 # MH 
##  Not dependent paramater.
## Those values should be edited following the 
## analytical expression. MG5 ignore those values 
## but they are important for interfacing the output of MG5
## to external program such as Pythia.
  12 0.000000 # ve : 0.0 
  14 0.000000 # vm : 0.0 
  16 0.000000 # vt : 0.0 
  2 0.000000 # u : 0.0 
  4 0.000000 # c : 0.0 
  1 0.000000 # d : 0.0 
  3 0.000000 # s : 0.0 
  22 0.000000 # a : 0.0 
  24 80.419002 # w+ : cmath.sqrt(MZ__exp__2/2. + cmath.sqrt(MZ__exp__4/4. - (aEW*cmath.pi*MZ__exp__2)/(Gf*sqrt__2))) 
  21 0.000000 # g : 0.0 
  11 0.000000 # e- : 0.0 
  13 0.000000 # mu- : 0.0 
###################################
## INFORMATION FOR SMINPUTS
###################################
Block sminputs 
    1 1.325070e+02 # aEWM1 
    2 1.166390e-05 # Gf 
    3 1.180000e-01 # aS 
###################################
## INFORMATION FOR YUKAWA
###################################
Block yukawa 
    5 4.200000e+00 # ymb 
    6 1.645000e+02 # ymt 
   15 1.777000e+00 # ymtau 
###################################
## INFORMATION FOR DECAY
###################################
DECAY   6 1.491500e+00 # WT 
DECAY  23 2.441404e+00 # WZ 
DECAY  24 2.047600e+00 # WW 
DECAY  25 5.753088e-03 # WH 
##  Not dependent paramater.
## Those values should be edited following the 
## analytical expression. MG5 ignore those values 
## but they are important for interfacing the output of MG5
## to external program such as Pythia.
DECAY  12 0.000000 # ve : 0.0 
DECAY  14 0.000000 # vm : 0.0 
DECAY  16 0.000000 # vt : 0.0 
DECAY  2 0.000000 # u : 0.0 
DECAY  4 0.000000 # c : 0.0 
DECAY  1 0.000000 # d : 0.0 
DECAY  3 0.000000 # s : 0.0 
DECAY  5 0.000000 # b : 0.0 
DECAY  22 0.000000 # a : 0.0 
DECAY  21 0.000000 # g : 0.0 
DECAY  11 0.000000 # e- : 0.0 
DECAY  13 0.000000 # mu- : 0.0 
DECAY  15 0.000000 # ta- : 0.0 
</slha>
<MGRunCard>
#*********************************************************************
#                       MadGraph/MadEvent                            *
#                  http://madgraph.hep.uiuc.edu                      *
#                                                                    *
#                        run_card.dat                                *
#                                                                    *
#  This file is used to set the parameters of the run.               *
#                                                                    *
#  Some notation/conventions:                                        *
#                                                                    *
#   Lines starting with a '# ' are info or comments                  *
#                                                                    *
#   mind the format:   value    = variable     ! comment             *
#*********************************************************************
#
#*******************                                                 
# Running parameters
#*******************                                                 
#                                                                    
#*********************************************************************
# Tag name for the run (one word)                                    *
#*********************************************************************
  tag_1     = run_tag ! name of the run 
#*********************************************************************
# Run to generate the grid pack                                      *
#*********************************************************************
  .false.     = gridpack  !True = setting up the grid pack
#*********************************************************************
# Number of events and rnd seed                                      *
# Warning: Do not generate more than 100K event in a single run      *
#*********************************************************************
  1000 = nevents ! Number of unweighted events requested 
      26 = iseed   ! rnd seed (0=assigned automatically=default))
#*********************************************************************
# Collider type and energy                                           *
#*********************************************************************
        1     = lpp1  ! beam 1 type (0=NO PDF)
        1     = lpp2  ! beam 2 type (0=NO PDF)
     3500     = ebeam1  ! beam 1 energy in GeV
     3500     = ebeam2  ! beam 2 energy in GeV
#*********************************************************************
# Beam polarization from -100 (left-handed) to 100 (right-handed)    *
#*********************************************************************
        0     = polbeam1 ! beam polarization for beam 1
        0     = polbeam2 ! beam polarization for beam 2
#*********************************************************************
# PDF CHOICE: this automatically fixes also alpha_s and its evol.    *
#*********************************************************************
 'cteq6l1'    = pdlabel     ! PDF set                                     
#*********************************************************************
# Renormalization and factorization scales                           *
#*********************************************************************
 F        = fixed_ren_scale  ! if .true. use fixed ren scale
 F        = fixed_fac_scale  ! if .true. use fixed fac scale
 91.1880  = scale            ! fixed ren scale
 91.1880  = dsqrt_q2fact1    ! fixed fact scale for pdf1
 91.1880  = dsqrt_q2fact2    ! fixed fact scale for pdf2
 1        = scalefact        ! scale factor for event-by-event scales
#*********************************************************************
# Matching - Warning! ickkw > 1 is still beta
#*********************************************************************
 0        = ickkw            ! 0 no matching, 1 MLM, 2 CKKW matching
 1        = highestmult      ! for ickkw=2, highest mult group
 1        = ktscheme         ! for ickkw=1, 1 Durham kT, 2 Pythia pTE
 1        = alpsfact         ! scale factor for QCD emission vx
 F        = chcluster        ! cluster only according to channel diag
 T        = pdfwgt           ! for ickkw=1, perform pdf reweighting
#*********************************************************************
# Automatic ptj and mjj cuts if xqcut > 0
# (turn off for VBF and single top processes)
#**********************************************************
   T  = auto_ptj_mjj  ! Automatic setting of ptj and mjj
#**********************************************************
#                                                                    
#**********************************
# BW cutoff (M+/-bwcutoff*Gamma)
#**********************************
  15  = bwcutoff      ! (M+/-bwcutoff*Gamma)
#**********************************************************
# Apply pt/E/eta/dr/mij cuts on decay products or not
# (note that etmiss/ptll/ptheavy/ht/sorted cuts always apply)
#**********************************************************
   T  = cut_decays    ! Cut decay products 
#*************************************************************
# Number of helicities to sum per event (0 = all helicities)
# 0 gives more stable result, but longer run time (needed for
# long decay chains e.g.).
# Use >=2 if most helicities contribute, e.g. pure QCD.
#*************************************************************
   0  = nhel          ! Number of helicities used per event
#*******************                                                 
# Standard Cuts
#*******************                                                 
#                                                                    
#*********************************************************************
# Minimum and maximum pt's                                           *
#*********************************************************************
 20  = ptj       ! minimum pt for the jets 
 20  = ptb       ! minimum pt for the b 
  0  = pta       ! minimum pt for the photons 
  0  = ptl       ! minimum pt for the charged leptons 
  0  = misset    ! minimum missing Et (sum of neutrino's momenta)
  0  = ptheavy   ! minimum pt for one heavy final state
 1.0 = ptonium   ! minimum pt for the quarkonium states
 1d5 = ptjmax    ! maximum pt for the jets
 1d5 = ptbmax    ! maximum pt for the b
 1d5 = ptamax    ! maximum pt for the photons
 1d5 = ptlmax    ! maximum pt for the charged leptons
 1d5 = missetmax ! maximum missing Et (sum of neutrino's momenta)
#*********************************************************************
# Minimum and maximum E's (in the lab frame)                         *
#*********************************************************************
  0  = ej     ! minimum E for the jets 
  0  = eb     ! minimum E for the b 
  0  = ea     ! minimum E for the photons 
  0  = el     ! minimum E for the charged leptons 
 1d5  = ejmax ! maximum E for the jets
 1d5  = ebmax ! maximum E for the b
 1d5  = eamax ! maximum E for the photons
 1d5  = elmax ! maximum E for the charged leptons
#*********************************************************************
# Maximum and minimum rapidity                                       *
#*********************************************************************
   5  = etaj    ! max rap for the jets 
 1d2  = etab    ! max rap for the b 
 2.5  = etaa    ! max rap for the photons 
 2.5  = etal    ! max rap for the charged leptons 
 0.6  = etaonium ! max rap for the quarkonium states
 0d0  = etajmin ! min rap for the jets
 0d0  = etabmin ! min rap for the b
 0d0  = etaamin ! min rap for the photons
 0d0  = etalmin ! main rap for the charged leptons
#*********************************************************************
# Minimum and maximum DeltaR distance                                *
#*********************************************************************
 0.4 = drjj    ! min distance between jets 
 0.4 = drbb    ! min distance between b's 
 0   = drll    ! min distance between leptons 
 0   = draa    ! min distance between gammas 
 0.4 = drbj    ! min distance between b and jet 
 0   = draj    ! min distance between gamma and jet 
 0   = drjl    ! min distance between jet and lepton 
 0   = drab    ! min distance between gamma and b 
 0   = drbl    ! min distance between b and lepton 
 0   = dral    ! min distance between gamma and lepton 
 1d2 = drjjmax ! max distance between jets
 1d2 = drbbmax ! max distance between b's
 1d2 = drllmax ! max distance between leptons
 1d2 = draamax ! max distance between gammas
 1d2 = drbjmax ! max distance between b and jet
 1d2 = drajmax ! max distance between gamma and jet
 1d2 = drjlmax ! max distance between jet and lepton
 1d2 = drabmax ! max distance between gamma and b
 1d2 = drblmax ! max distance between b and lepton
 1d2 = dralmax ! maxdistance between gamma and lepton
#*********************************************************************
# Minimum and maximum invariant mass for pairs                       *
#*********************************************************************
 0   = mmjj    ! min invariant mass of a jet pair 
 0   = mmbb    ! min invariant mass of a b pair 
 0   = mmaa    ! min invariant mass of gamma gamma pair
 0   = mmll    ! min invariant mass of l+l- (same flavour) lepton pair
 1d5 = mmjjmax ! max invariant mass of a jet pair
 1d5 = mmbbmax ! max invariant mass of a b pair
 1d5 = mmaamax ! max invariant mass of gamma gamma pair
 1d5 = mmllmax ! max invariant mass of l+l- (same flavour) lepton pair
#*********************************************************************
# Minimum and maximum invariant mass for all letpons                 *
#*********************************************************************
 0   = mmnl    ! min invariant mass for all letpons (l+- and vl) 
 1d5 = mmnlmax ! max invariant mass for all letpons (l+- and vl) 
#*********************************************************************
# Minimum and maximum pt for 4-momenta sum of leptons                *
#*********************************************************************
 0   = ptllmin  ! Minimum pt for 4-momenta sum of leptons(l and vl)
 1d5 = ptllmax  ! Maximum pt for 4-momenta sum of leptons(l and vl)
#*********************************************************************
# Inclusive cuts                                                     *
#*********************************************************************
 0  = xptj ! minimum pt for at least one jet  
 0  = xptb ! minimum pt for at least one b 
 0  = xpta ! minimum pt for at least one photon 
 0  = xptl ! minimum pt for at least one charged lepton 
#*********************************************************************
# Control the pt's of the jets sorted by pt                          *
#*********************************************************************
 0   = ptj1min ! minimum pt for the leading jet in pt
 0   = ptj2min ! minimum pt for the second jet in pt
 0   = ptj3min ! minimum pt for the third jet in pt
 0   = ptj4min ! minimum pt for the fourth jet in pt
 1d5 = ptj1max ! maximum pt for the leading jet in pt 
 1d5 = ptj2max ! maximum pt for the second jet in pt
 1d5 = ptj3max ! maximum pt for the third jet in pt
 1d5 = ptj4max ! maximum pt for the fourth jet in pt
 0   = cutuse  ! reject event if fails any (0) / all (1) jet pt cuts
#*********************************************************************
# Control the Ht(k)=Sum of k leading jets                            *
#*********************************************************************
 0   = htjmin ! minimum jet HT=Sum(jet pt)
 1d5 = htjmax ! maximum jet HT=Sum(jet pt)
 0   = ihtmin  !inclusive Ht for all partons (including b)
 1d5 = ihtmax  !inclusive Ht for all partons (including b)
 0   = ht2min ! minimum Ht for the two leading jets
 0   = ht3min ! minimum Ht for the three leading jets
 0   = ht4min ! minimum Ht for the four leading jets
 1d5 = ht2max ! maximum Ht for the two leading jets
 1d5 = ht3max ! maximum Ht for the three leading jets
 1d5 = ht4max ! maximum Ht for the four leading jets
#*********************************************************************
# WBF cuts                                                           *
#*********************************************************************
 0   = xetamin ! minimum rapidity for two jets in the WBF case  
 0   = deltaeta ! minimum rapidity for two jets in the WBF case 
#*********************************************************************
# maximal pdg code for quark to be considered as a light jet         *
# (otherwise b cuts are applied)                                     *
#*********************************************************************
 4 = maxjetflavor    ! Maximum jet pdg code
#*********************************************************************
# Jet measure cuts                                                   *
#*********************************************************************
 0   = xqcut   ! minimum kt jet measure between partons
#*********************************************************************
</MGRunCard>
<MGGenerationInfo>
#  Number of Events        :        1000
#  Integrated weight (pb)  :  .15448E+02
#  Truncated wgt (pb)      :  .00000E+00
#  Unit wgt                :  .15448E-01
</MGGenerationInfo>
</header>
<init>
     2212     2212  0.35000000000E+04  0.35000000000E+04 0 0 10042 10042 3  1
  0.15447830000E+02  0.11393961942E+00  0.15447830000E-01   0
</init>
<event>
12   0  0.1544783E-01  0.2213456E+03  0.7957747E-01  0.1139683E+00
       21   -1    0    0  504  503  0.00000000000E+00  0.00000000000E+00  0.16250829410E+03  0.16250829410E+03  0.00000000000E+00 0. -1.
       21   -1    0    0  501  504  0.00000000000E+00  0.00000000000E+00 -0.30189658505E+03  0.30189658505E+03  0.00000000000E+00 0.  1.
        6    2    1    2  501    0  0.97507673602E+02 -0.97510879372E+02 -0.79618604076E+02  0.23513152703E+03  0.17300749950E+03 0.  0.
       24    2    3    3    0    0  0.83894442533E+02 -0.12032052792E+03 -0.10558178483E+03  0.19769121611E+03  0.80118641481E+02 0.  0.
       -6    2    1    2    0  503 -0.97507673602E+02  0.97510879372E+02 -0.59769686868E+02  0.22927335212E+03  0.17314079968E+03 0.  0.
      -24    2    5    5    0    0 -0.13421005292E+03  0.63210818160E+02 -0.31975740267E+02  0.17166994671E+03  0.80250712163E+02 0.  0.
        5    1    3    3  501    0  0.13613231068E+02  0.22809648547E+02  0.25963180757E+02  0.37440310923E+02  0.47000000000E+01 0. -1.
      -13    1    4    4    0    0  0.79663943719E+02 -0.77267235069E+02 -0.10733704058E+03  0.15439497992E+03  0.00000000000E+00 0.  1.
       14    1    4    4    0    0  0.42304988142E+01 -0.43053292850E+02  0.17552557505E+01  0.43296236189E+02  0.00000000000E+00 0. -1.
       -5    1    5    5    0  503  0.36702379314E+02  0.34300061212E+02 -0.27793946600E+02  0.57603405404E+02  0.47000000000E+01 0.  1.
        1    1    6    6  502    0 -0.28920969304E+02  0.12353175659E+02  0.26325312191E+02  0.41012747729E+02  0.00000000000E+00 0. -1.
       -2    1    6    6    0  502 -0.10528908361E+03  0.50857642501E+02 -0.58301052458E+02  0.13065719898E+03  0.00000000000E+00 0.  1.
</event>
<event>
12   0  0.1544783E-01  0.1897913E+03  0.7957747E-01  0.1164591E+00
       -1   -1    0    0    0  501  0.00000000000E+00  0.00000000000E+00  0.33452805925E+02  0.33452805925E+02  0.00000000000E+00 0.  1.
        1   -1    0    0  502    0  0.00000000000E+00  0.00000000000E+00 -0.12076842661E+04  0.12076842661E+04  0.00000000000E+00 0. -1.
        6    2    1    2  502    0  0.60954499112E+02 -0.46794239640E+02 -0.38277311340E+03  0.42723923344E+03  0.17353084573E+03 0.  0.
       24    2    3    3    0    0  0.15886723023E+02 -0.26349819104E+02 -0.12345637645E+03  0.16320071573E+03  0.10220712202E+03 0.  0.
       -6    2    1    2    0  501 -0.60954499112E+02  0.46794239640E+02 -0.79145834674E+03  0.81389783856E+03  0.17354603180E+03 0.  0.
      -24    2    5    5    0    0 -0.41843067255E+02  0.91621467758E+02 -0.44934489657E+03  0.46829918405E+03  0.85134916902E+02 0.  0.
        5    1    3    3  502    0  0.45067776090E+02 -0.20444420536E+02 -0.25931673695E+03  0.26403851771E+03  0.47000000000E+01 0. -1.
      -13    1    4    4    0    0  0.46755434828E+02  0.19483395380E+02 -0.48959329886E+02  0.70446358064E+02  0.00000000000E+00 0.  1.
       14    1    4    4    0    0 -0.30868711806E+02 -0.45833214484E+02 -0.74497046566E+02  0.92754357663E+02  0.00000000000E+00 0. -1.
       -5    1    5    5    0  501 -0.19111431857E+02 -0.44827228119E+02 -0.34211345017E+03  0.34559865451E+03  0.47000000000E+01 0.  1.
        3    1    6    6  503    0 -0.66393689333E+02  0.50623957204E+02 -0.26364782290E+03  0.27655213170E+03  0.00000000000E+00 0. -1.
       -4    1    6    6    0  503  0.24550622078E+02  0.40997510554E+02 -0.18569707367E+03  0.19174705235E+03  0.00000000000E+00 0.  1.
</event>
<event>
12   0  0.1544783E-01  0.2357813E+03  0.7957747E-01  0.1129757E+00
       21   -1    0    0  504  503  0.00000000000E+00  0.00000000000E+00  0.61968029158E+03  0.61968029158E+03  0.00000000000E+00 0. -1.
       21   -1    0    0  501  504  0.00000000000E+00  0.00000000000E+00 -0.90157550360E+02  0.90157550360E+02  0.00000000000E+00 0. -1.
        6    2    1    2  501    0  0.10374366531E+03  0.12085706315E+03  0.23319649032E+03  0.33115317114E+03  0.17295271566E+03 0.  0.
       24    2    3    3    0    0  0.69549733493E+02  0.18112396363E+01  0.13542276543E+03  0.17328321089E+03  0.82748412448E+02 0.  0.
       -6    2    1    2    0  503 -0.10374366531E+03 -0.12085706315E+03  0.29632625090E+03  0.37868467080E+03  0.17384951861E+03 0.  0.
      -24    2    5    5    0    0 -0.48684883605E+02  0.74409411415E+01  0.94375234343E+02  0.13312785367E+03  0.79942198303E+02 0.  0.
        5    1    3    3  501    0  0.34193931819E+02  0.11904582352E+03  0.97773724887E+02  0.15786996025E+03  0.47000000000E+01 0. -1.
      -13    1    4    4    0    0 -0.10523316332E+02 -0.47854949497E+01  0.66288794997E+02  0.67289267277E+02  0.00000000000E+00 0.  1.
       14    1    4    4    0    0  0.80073049825E+02  0.65967345861E+01  0.69133970433E+02  0.10599394362E+03  0.00000000000E+00 0. -1.
       -5    1    5    5    0  503 -0.55058781707E+02 -0.12829800429E+03  0.20195101656E+03  0.24555681713E+03  0.47000000000E+01 0.  1.
        3    1    6    6  502    0 -0.49041271216E+02 -0.23928901876E+02  0.31873539921E+02  0.63194629317E+02  0.00000000000E+00 0. -1.
       -4    1    6    6    0  502  0.35638761159E+00  0.31369843017E+02  0.62501694422E+02  0.69933224355E+02  0.00000000000E+00 0.  1.
</event>
<event>
12   0  0.1544783E-01  0.3383647E+03  0.7957747E-01  0.1076169E+00
       21   -1    0    0  504  503  0.00000000000E+00  0.00000000000E+00  0.27982569513E+03  0.27982569513E+03  0.00000000000E+00 0. -1.
       21   -1    0    0  501  504  0.00000000000E+00  0.00000000000E+00 -0.41166610875E+03  0.41166610875E+03  0.00000000000E+00 0.  1.
        6    2    1    2  501    0  0.25567445254E+03 -0.13740150685E+03 -0.95594407706E+02  0.35119125019E+03  0.17305607084E+03 0.  0.
       24    2    3    3    0    0  0.13502683550E+03 -0.14838344938E+03 -0.72431346926E+02  0.22776083277E+03  0.79867406189E+02 0.  0.
       -6    2    1    2    0  503 -0.25567445254E+03  0.13740150685E+03 -0.36246005913E+02  0.34030055369E+03  0.17390254205E+03 0.  0.
      -24    2    5    5    0    0 -0.17399315459E+03  0.12839339747E+03  0.32988240296E+02  0.23274381835E+03  0.79517159307E+02 0.  0.
        5    1    3    3  501    0  0.12064761705E+03  0.10981942525E+02 -0.23163060780E+02  0.12343041742E+03  0.47000000000E+01 0. -1.
      -11    1    4    4    0    0  0.79343030722E+02 -0.59605956368E+02 -0.72609991409E+02  0.12296502515E+03  0.00000000000E+00 0.  1.
       12    1    4    4    0    0  0.55683804775E+02 -0.88777493010E+02  0.17864448266E+00  0.10479580761E+03  0.00000000000E+00 0. -1.
       -5    1    5    5    0  503 -0.81681297954E+02  0.90081093863E+01 -0.69234246209E+02  0.10755673535E+03  0.47000000000E+01 0.  1.
        1    1    6    6  502    0 -0.33605808970E+02  0.68940932173E+02 -0.29379526683E+00  0.76696081002E+02  0.00000000000E+00 0. -1.
       -2    1    6    6    0  502 -0.14038734562E+03  0.59452465294E+02  0.33282035563E+02  0.15604773735E+03  0.00000000000E+00 0.  1.
</event>
<event>
12   0  0.1544783E-01  0.1986803E+03  0.7957747E-01  0.1157065E+00
       21   -1    0    0  504  503  0.00000000000E+00  0.00000000000E+00  0.60086071477E+02  0.60086071477E+02  0.00000000000E+00 0. -1.
       21   -1    0    0  501  504  0.00000000000E+00  0.00000000000E+00 -0.73715725178E+03  0.73715725178E+03  0.00000000000E+00 0. -1.
        6    2    1    2  501    0  0.28121345040E+02  0.91269501195E+02 -0.20393220886E+03  0.28408218442E+03  0.17318605544E+03 0.  0.
       24    2    3    3    0    0  0.97816214053E+01  0.27825969513E+02 -0.77519123556E+01  0.77030920449E+02  0.70736877676E+02 0.  0.
       -6    2    1    2    0  503 -0.28121345040E+02 -0.91269501195E+02 -0.47313897143E+03  0.51316113883E+03  0.17422094082E+03 0.  0.
      -24    2    5    5    0    0 -0.83258497389E+02 -0.83717113919E+02 -0.31893026152E+03  0.34915028451E+03  0.79049838117E+02 0.  0.
        5    1    3    3  501    0  0.18339723635E+02  0.63443531682E+02 -0.19618029651E+03  0.20705126397E+03  0.47000000000E+01 0. -1.
      -13    1    4    4    0    0  0.20981576333E+02 -0.10120361133E+02  0.18330886754E+02  0.29642362660E+02  0.00000000000E+00 0.  1.
       14    1    4    4    0    0 -0.11199954928E+02  0.37946330646E+02 -0.26082799110E+02  0.47388557789E+02  0.00000000000E+00 0. -1.
       -5    1    5    5    0  503  0.55137152349E+02 -0.75523872755E+01 -0.15420870991E+03  0.16401085432E+03  0.47000000000E+01 0.  1.
        1    1    6    6  502    0 -0.79475835762E+02 -0.25416977986E+02 -0.19717707649E+03  0.21410565320E+03  0.00000000000E+00 0. -1.
       -2    1    6    6    0  502 -0.37826616272E+01 -0.58300135933E+02 -0.12175318503E+03  0.13504463131E+03  0.00000000000E+00 0.  1.
</event>
<event>
12   0  0.1544783E-01  0.1823247E+03  0.7957747E-01  0.1171271E+00
       21   -1    0    0  504  503  0.00000000000E+00  0.00000000000E+00  0.31136583868E+03  0.31136583868E+03  0.00000000000E+00 0. -1.
       21   -1    0    0  501  504  0.00000000000E+00  0.00000000000E+00 -0.11340811104E+03  0.11340811104E+03  0.00000000000E+00 0. -1.
        6    2    1    2  501    0  0.35034680448E+02 -0.36792803151E+02  0.43006980774E+02  0.18550000482E+03  0.17314592746E+03 0.  0.
       24    2    3    3    0    0  0.80858682005E+02 -0.38192882160E+02 -0.16381937746E+01  0.12133552126E+03  0.81992696858E+02 0.  0.
       -6    2    1    2    0  503 -0.35034680448E+02  0.36792803151E+02  0.15495074687E+03  0.23927394490E+03  0.17510324826E+03 0.  0.
      -24    2    5    5    0    0 -0.57960156351E+02 -0.19949777335E+02  0.40790712995E+02  0.10965951198E+03  0.81264709198E+02 0.  0.
        5    1    3    3  501    0 -0.45824001557E+02  0.14000790093E+01  0.44645174549E+02  0.64164483559E+02  0.47000000000E+01 0. -1.
      -11    1    4    4    0    0  0.15615166952E+02 -0.38334617074E+02  0.27692514308E+02  0.49802124993E+02  0.00000000000E+00 0.  1.
       12    1    4    4    0    0  0.65243515053E+02  0.14173491414E+00 -0.29330708082E+02  0.71533396270E+02  0.00000000000E+00 0. -1.
       -5    1    5    5    0  503  0.22925475903E+02  0.56742580486E+02  0.11416003388E+03  0.12961443292E+03  0.47000000000E+01 0.  1.
        1    1    6    6  502    0 -0.42349599149E+02  0.24523057885E+02  0.38855191199E+02  0.62486756991E+02  0.00000000000E+00 0. -1.
       -2    1    6    6    0  502 -0.15610557202E+02 -0.44472835220E+02  0.19355217963E+01  0.47172754990E+02  0.00000000000E+00 0.  1.
</event>
<event>
12   0  0.1544783E-01  0.2578336E+03  0.7957747E-01  0.1116002E+00
       21   -1    0    0  501  503  0.00000000000E+00  0.00000000000E+00  0.41943923480E+03  0.41943923480E+03  0.00000000000E+00 0.  1.
       21   -1    0    0  503  504  0.00000000000E+00  0.00000000000E+00 -0.20539107274E+03  0.20539107274E+03  0.00000000000E+00 0. -1.
        6    2    1    2  501    0 -0.18243491862E+03 -0.58754942803E+02  0.25722568051E+03  0.36420213791E+03  0.17246305027E+03 0.  0.
       24    2    3    3    0    0 -0.93718615094E+02 -0.44090407807E+02  0.23915469057E+03  0.27236379202E+03  0.79119696074E+02 0.  0.
       -6    2    1    2    0  504  0.18243491862E+03  0.58754942803E+02 -0.43177518444E+02  0.26062816963E+03  0.17125449445E+03 0.  0.
      -24    2    5    5    0    0  0.12771044837E+03 -0.25503858833E+02 -0.88625274393E+01  0.15435530430E+03  0.82380884521E+02 0.  0.
        5    1    3    3  501    0 -0.88716303528E+02 -0.14664534995E+02  0.18070989939E+02  0.91838345889E+02  0.47000000000E+01 0. -1.
        4    1    4    4  502    0 -0.92186745106E+02 -0.69043031727E+01  0.15747650065E+03  0.18260589704E+03  0.00000000000E+00 0. -1.
       -3    1    4    4    0  502 -0.15318699884E+01 -0.37186104634E+02  0.81678189919E+02  0.89757894985E+02  0.00000000000E+00 0.  1.
       -5    1    5    5    0  504  0.54724470249E+02  0.84258801636E+02 -0.34314991005E+02  0.10627286533E+03  0.47000000000E+01 0.  1.
       13    1    6    6    0    0  0.94719653218E+02 -0.46626845611E+02 -0.30118794278E+02  0.10978623414E+03  0.00000000000E+00 0. -1.
      -14    1    6    6    0    0  0.32990795155E+02  0.21122986777E+02  0.21256266839E+02  0.44569070164E+02  0.00000000000E+00 0.  1.
</event>
<event>
12   0  0.1544783E-01  0.1917181E+03  0.7957747E-01  0.1162921E+00
       21   -1    0    0  501  503  0.00000000000E+00  0.00000000000E+00  0.46680016666E+03  0.46680016666E+03  0.00000000000E+00 0. -1.
       21   -1    0    0  503  504  0.00000000000E+00  0.00000000000E+00 -0.78143771634E+02  0.78143771634E+02  0.00000000000E+00 0.  1.
        6    2    1    2  501    0 -0.47492216919E+02  0.71298573348E+02  0.24548653545E+03  0.30566700072E+03  0.16071614422E+03 0.  0.
       24    2    3    3    0    0 -0.63887730857E+01  0.40926689343E+02  0.50285570484E+02  0.10383179280E+03  0.80849194644E+02 0.  0.
       -6    2    1    2    0  504  0.47492216919E+02 -0.71298573348E+02  0.14316985958E+03  0.23927693758E+03  0.17151340162E+03 0.  0.
      -24    2    5    5    0    0 -0.30346920211E+02 -0.74570021334E+02  0.84392550324E+02  0.14157076723E+03  0.80240612758E+02 0.  0.
        5    1    3    3  501    0 -0.41103443833E+02  0.30371884005E+02  0.19520096496E+03  0.20183520792E+03  0.47000000000E+01 0. -1.
      -11    1    4    4    0    0 -0.21630770213E+02  0.32570723320E+02  0.68362320255E+02  0.78753724154E+02  0.00000000000E+00 0.  1.
       12    1    4    4    0    0  0.15241997127E+02  0.83559660234E+01 -0.18076749771E+02  0.25078068644E+02  0.00000000000E+00 0. -1.
       -5    1    5    5    0  504  0.77839137129E+02  0.32714479865E+01  0.58777309257E+02  0.97706170350E+02  0.47000000000E+01 0.  1.
        3    1    6    6  502    0 -0.27049905526E+02 -0.26167641856E+02  0.85100280755E+02  0.93051064764E+02  0.00000000000E+00 0. -1.
       -4    1    6    6    0  502 -0.32970146844E+01 -0.48402379478E+02 -0.70773043018E+00  0.48519702466E+02  0.00000000000E+00 0.  1.
</event>
<event>
12   0  0.1544783E-01  0.2937054E+03  0.7957747E-01  0.1096551E+00
        1   -1    0    0  502    0  0.00000000000E+00  0.00000000000E+00  0.43751509814E+03  0.43751509814E+03  0.00000000000E+00 0. -1.
       -1   -1    0    0    0  501  0.00000000000E+00  0.00000000000E+00 -0.24447214272E+03  0.24447214272E+03  0.00000000000E+00 0.  1.
        6    2    1    2  502    0 -0.20135280055E+02 -0.23773686819E+03 -0.53160610820E+02  0.29964016247E+03  0.17330299601E+03 0.  0.
       24    2    3    3    0    0 -0.29924916639E+02 -0.10925301024E+03  0.35504711083E+02  0.14315512151E+03  0.80006771105E+02 0.  0.
       -6    2    1    2    0  501  0.20135280055E+02  0.23773686819E+03  0.24620356624E+03  0.38234707838E+03  0.16925969491E+03 0.  0.
      -24    2    5    5    0    0  0.51111413739E+02  0.96126972451E+02  0.61771032221E+02  0.14771900454E+03  0.78437697793E+02 0.  0.
        5    1    3    3  502    0  0.97896365839E+01 -0.12848385795E+03 -0.88665321903E+02  0.15648504096E+03  0.47000000000E+01 0. -1.
      -13    1    4    4    0    0 -0.23937050803E+02 -0.11525341763E+03  0.12184343282E+02  0.11834183917E+03  0.00000000000E+00 0.  1.
       14    1    4    4    0    0 -0.59878658359E+01  0.60004073898E+01  0.23320367801E+02  0.24813282340E+02  0.00000000000E+00 0. -1.
       -5    1    5    5    0  501 -0.30976133683E+02  0.14160989574E+03  0.18443253402E+03  0.23462807384E+03  0.47000000000E+01 0.  1.
        3    1    6    6  503    0  0.26153415202E+02  0.89440316096E+02  0.74132127242E+02  0.11907620904E+03  0.00000000000E+00 0. -1.
       -4    1    6    6    0  503  0.24957998537E+02  0.66866563548E+01 -0.12361095021E+02  0.28642795504E+02  0.00000000000E+00 0.  1.
</event>
<event>
12   0  0.1544783E-01  0.1753554E+03  0.7957747E-01  0.1177832E+00
       -2   -1    0    0    0  501  0.00000000000E+00  0.00000000000E+00  0.18967438893E+03  0.18967438893E+03  0.00000000000E+00 0. -1.
        2   -1    0    0  502    0  0.00000000000E+00  0.00000000000E+00 -0.18005845556E+03  0.18005845556E+03  0.00000000000E+00 0.  1.
        6    2    1    2  502    0  0.16832390943E+02 -0.24350961828E+02 -0.53556545756E+02  0.18287996157E+03  0.17233826628E+03 0.  0.
       24    2    3    3    0    0  0.46388380594E+02  0.25325506477E+02 -0.72187214766E+02  0.12196608914E+03  0.82894329064E+02 0.  0.
       -6    2    1    2    0  501 -0.16832390943E+02  0.24350961828E+02  0.63172479130E+02  0.18685288291E+03  0.17334052904E+03 0.  0.
      -24    2    5    5    0    0 -0.34105667237E+02 -0.48014413246E+01  0.10316210918E+03  0.13422694639E+03  0.78665125628E+02 0.  0.
        5    1    3    3  502    0 -0.29555989650E+02 -0.49676468305E+02  0.18630669011E+02  0.60913872437E+02  0.47000000000E+01 0. -1.
        2    1    4    4  503    0  0.29590114336E+02 -0.10292198391E+02  0.82580887886E+01  0.32399077835E+02  0.00000000000E+00 0. -1.
       -1    1    4    4    0  503  0.16798266258E+02  0.35617704867E+02 -0.80445303555E+02  0.89567011301E+02  0.00000000000E+00 0.  1.
       -5    1    5    5    0  501  0.17273276293E+02  0.29152403153E+02 -0.39989630049E+02  0.52625936523E+02  0.47000000000E+01 0.  1.
       13    1    6    6    0    0  0.23748140574E+02  0.77869693025E+01  0.43528451632E+02  0.50192999244E+02  0.00000000000E+00 0. -1.
      -14    1    6    6    0    0 -0.57853807810E+02 -0.12588410627E+02  0.59633657547E+02  0.84033947144E+02  0.00000000000E+00 0.  1.
</event>
<event>
12   0  0.1544783E-01  0.1957819E+03  0.7957747E-01  0.1159471E+00
       21   -1    0    0  501  503  0.00000000000E+00  0.00000000000E+00  0.43789588757E+03  0.43789588757E+03  0.00000000000E+00 0.  1.
       21   -1    0    0  503  504  0.00000000000E+00  0.00000000000E+00 -0.12185720319E+03  0.12185720319E+03  0.00000000000E+00 0.  1.
        6    2    1    2  501    0  0.85608472539E+02  0.32033151105E+02  0.92782205360E+01  0.19600158944E+03  0.17313464225E+03 0.  0.
       24    2    3    3    0    0 -0.11231165967E+02  0.24570716580E+02 -0.32790694257E+02  0.90051190166E+02  0.79398539144E+02 0.  0.
       -6    2    1    2    0  504 -0.85608472539E+02 -0.32033151105E+02  0.30676046385E+03  0.36375150131E+03  0.17279536796E+03 0.  0.
      -24    2    5    5    0    0 -0.74321028285E+02 -0.55336354727E+02  0.99968022842E+02  0.15529131482E+03  0.74404700574E+02 0.  0.
        5    1    3    3  501    0  0.96839638506E+02  0.74624345254E+01  0.42068914793E+02  0.10595039928E+03  0.47000000000E+01 0. -1.
      -11    1    4    4    0    0  0.83894830974E+01 -0.12629319581E+02 -0.43988970392E+02  0.46528621899E+02  0.00000000000E+00 0.  1.
       12    1    4    4    0    0 -0.19620649065E+02  0.37200036161E+02  0.11198276134E+02  0.43522568267E+02  0.00000000000E+00 0. -1.
       -5    1    5    5    0  504 -0.11287444254E+02  0.23303203622E+02  0.20679244100E+03  0.20846018649E+03  0.47000000000E+01 0.  1.
        3    1    6    6  502    0 -0.41445708238E+02 -0.10825173696E+01  0.59665314544E+01  0.41886967815E+02  0.00000000000E+00 0. -1.
       -4    1    6    6    0  502 -0.32875320047E+02 -0.54253837358E+02  0.94001491388E+02  0.11340434700E+03  0.00000000000E+00 0.  1.
</event>
<event>
12   0  0.1544783E-01  0.2254012E+03  0.7957747E-01  0.1136812E+00
       21   -1    0    0  504  503  0.00000000000E+00  0.00000000000E+00  0.34632232049E+03  0.34632232049E+03  0.00000000000E+00 0.  1.
       21   -1    0    0  501  504  0.00000000000E+00  0.00000000000E+00 -0.14718189369E+03  0.14718189369E+03  0.00000000000E+00 0. -1.
        6    2    1    2  501    0  0.57960585194E+02  0.13154428894E+03  0.81265286048E+02  0.23914179006E+03  0.17297809008E+03 0.  0.
       24    2    3    3    0    0  0.95873895465E+02  0.10823222031E+03  0.96891671589E+02  0.19173772310E+03  0.80432214255E+02 0.  0.
       -6    2    1    2    0  503 -0.57960585194E+02 -0.13154428894E+03  0.11787514076E+03  0.25436242412E+03  0.17361556556E+03 0.  0.
      -24    2    5    5    0    0 -0.76016351643E+02 -0.21286016144E+02  0.70425691939E+02  0.13288634575E+03  0.80420287252E+02 0.  0.
        5    1    3    3  501    0 -0.37913310271E+02  0.23312068631E+02 -0.15626385541E+02  0.47404066963E+02  0.47000000000E+01 0. -1.
      -11    1    4    4    0    0  0.21222275445E+02  0.47371369608E+02  0.77831751227E+02  0.93553263613E+02  0.00000000000E+00 0.  1.
       12    1    4    4    0    0  0.74651620020E+02  0.60860850706E+02  0.19059920362E+02  0.98184459485E+02  0.00000000000E+00 0. -1.
       -5    1    5    5    0  503  0.18055766448E+02 -0.11025827280E+03  0.47449448816E+02  0.12147607837E+03  0.47000000000E+01 0.  1.
        1    1    6    6  502    0 -0.72261709350E+02 -0.45838220529E+02  0.65004759355E+02  0.10746402113E+03  0.00000000000E+00 0. -1.
       -2    1    6    6    0  502 -0.37546422922E+01  0.24552204384E+02  0.54209325845E+01  0.25422324618E+02  0.00000000000E+00 0.  1.
</event>
<event>
12   0  0.1544783E-01  0.2129045E+03  0.7957747E-01  0.1145878E+00
       21   -1    0    0  501  503  0.00000000000E+00  0.00000000000E+00  0.24656807536E+03  0.24656807536E+03  0.00000000000E+00 0.  1.
       21   -1    0    0  503  504  0.00000000000E+00  0.00000000000E+00 -0.28882735490E+03  0.28882735490E+03  0.00000000000E+00 0.  1.
        6    2    1    2  501    0  0.46688561814E+02 -0.11355154044E+03  0.14054118112E+03  0.25510809708E+03  0.17393833237E+03 0.  0.
       24    2    3    3    0    0  0.14239597529E+02 -0.26009246656E+02  0.13679612298E+03  0.16155221034E+03  0.80664058626E+02 0.  0.
       -6    2    1    2    0  504 -0.46688561814E+02  0.11355154044E+03 -0.18280046066E+03  0.28028733318E+03  0.17341051462E+03 0.  0.
      -24    2    5    5    0    0 -0.24880457240E+02  0.13981898316E+03 -0.99156804623E+02  0.18982229480E+03  0.77666250684E+02 0.  0.
        5    1    3    3  501    0  0.32448964284E+02 -0.87542293783E+02  0.37450581398E+01  0.93555886743E+02  0.47000000000E+01 0. -1.
      -11    1    4    4    0    0 -0.15850180502E+02 -0.46373988170E+02  0.87840054940E+02  0.10058653117E+03  0.00000000000E+00 0.  1.
       12    1    4    4    0    0  0.30089778031E+02  0.20364741514E+02  0.48956068037E+02  0.60965679169E+02  0.00000000000E+00 0. -1.
       -5    1    5    5    0  504 -0.21808104574E+02 -0.26267442724E+02 -0.83643656041E+02  0.90465038376E+02  0.47000000000E+01 0.  1.
        3    1    6    6  502    0 -0.36287157365E+02  0.89276852003E+02 -0.98787655440E+02  0.13800766269E+03  0.00000000000E+00 0. -1.
       -4    1    6    6    0  502  0.11406700125E+02  0.50542131160E+02 -0.36914918301E+00  0.51814632113E+02  0.00000000000E+00 0.  1.
</event>
<event>
12   0  0.1544783E-01  0.2555701E+03  0.7957747E-01  0.1117343E+00
       21   -1    0    0  501  503  0.00000000000E+00  0.00000000000E+00  0.45626687250E+03  0.45626687250E+03  0.00000000000E+00 0. -1.
       21   -1    0    0  503  504  0.00000000000E+00  0.00000000000E+00 -0.24312118174E+03  0.24312118174E+03  0.00000000000E+00 0.  1.
        6    2    1    2  501    0  0.40672468977E+01  0.18828539491E+03  0.33158450864E+03  0.41864584030E+03  0.17276608696E+03 0.  0.
       24    2    3    3    0    0  0.39187529696E+02  0.19745989236E+03  0.30119923331E+03  0.37107525460E+03  0.80310614839E+02 0.  0.
       -6    2    1    2    0  504 -0.40672468977E+01 -0.18828539491E+03 -0.11843881787E+03  0.28074221394E+03  0.17123231200E+03 0.  0.
      -24    2    5    5    0    0  0.50728904741E+01 -0.12421622148E+03 -0.23707571258E+01  0.14776745761E+03  0.79838569262E+02 0.  0.
        5    1    3    3  501    0 -0.35120282798E+02 -0.91744974538E+01  0.30385275327E+02  0.47570585702E+02  0.47000000000E+01 0. -1.
      -13    1    4    4    0    0  0.40908629842E+02  0.77461222727E+02  0.18170655185E+03  0.20172017253E+03  0.00000000000E+00 0.  1.
       14    1    4    4    0    0 -0.17211001458E+01  0.11999866963E+03  0.11949268146E+03  0.16935508207E+03  0.00000000000E+00 0. -1.
       -5    1    5    5    0  504 -0.91401373717E+01 -0.64069173420E+02 -0.11606806075E+03  0.13297475633E+03  0.47000000000E+01 0.  1.
        3    1    6    6  502    0  0.39768351435E+02 -0.63327619187E+02 -0.15755348509E+02  0.76420809564E+02  0.00000000000E+00 0. -1.
       -4    1    6    6    0  502 -0.34695460961E+02 -0.60888602298E+02  0.13384591383E+02  0.71346648047E+02  0.00000000000E+00 0.  1.
</event>
<event>
12   0  0.1544783E-01  0.2232595E+03  0.7957747E-01  0.1138320E+00
       21   -1    0    0  501  503  0.00000000000E+00  0.00000000000E+00  0.36385121281E+03  0.36385121281E+03  0.00000000000E+00 0. -1.
       21   -1    0    0  503  504  0.00000000000E+00  0.00000000000E+00 -0.16870141541E+03  0.16870141541E+03  0.00000000000E+00 0. -1.
        6    2    1    2  501    0  0.80931830063E+02 -0.11361903694E+03  0.21582855189E+03  0.31052660787E+03  0.17431455393E+03 0.  0.
       24    2    3    3    0    0  0.11176231434E+03 -0.10979476084E+03  0.13019929406E+03  0.21931474655E+03  0.81248984407E+02 0.  0.
       -6    2    1    2    0  504 -0.80931830063E+02  0.11361903694E+03 -0.20678754489E+02  0.22202602035E+03  0.17148963862E+03 0.  0.
      -24    2    5    5    0    0 -0.60255780782E+02  0.14748893794E+03 -0.38680196285E+01  0.17867443428E+03  0.80782708283E+02 0.  0.
        5    1    3    3  501    0 -0.30830484274E+02 -0.38242760931E+01  0.85629257830E+02  0.91211861316E+02  0.47000000000E+01 0. -1.
      -13    1    4    4    0    0  0.10473176214E+03 -0.50715112373E+02  0.94724878379E+02  0.15004521721E+03  0.00000000000E+00 0.  1.
       14    1    4    4    0    0  0.70305522001E+01 -0.59079648469E+02  0.35474415676E+02  0.69269529340E+02  0.00000000000E+00 0. -1.
       -5    1    5    5    0  504 -0.20676049281E+02 -0.33869901008E+02 -0.16810734861E+02  0.43351586069E+02  0.47000000000E+01 0.  1.
        1    1    6    6  502    0 -0.69401718556E+02  0.77844443634E+02 -0.20976642889E+02  0.10637845407E+03  0.00000000000E+00 0. -1.
       -2    1    6    6    0  502  0.91459377738E+01  0.69644494310E+02  0.17108623260E+02  0.72295980215E+02  0.00000000000E+00 0.  1.
</event>
<event>
12   0  0.1544783E-01  0.2584379E+03  0.7957747E-01  0.1115646E+00
       21   -1    0    0  501  503  0.00000000000E+00  0.00000000000E+00  0.27093946075E+03  0.27093946075E+03  0.00000000000E+00 0. -1.
       21   -1    0    0  503  504  0.00000000000E+00  0.00000000000E+00 -0.46423966839E+03  0.46423966839E+03  0.00000000000E+00 0. -1.
        6    2    1    2  501    0 -0.50403831183E+02  0.18262930657E+03  0.15705570186E+03  0.29981790194E+03  0.17126082745E+03 0.  0.
       24    2    3    3    0    0  0.46571535407E+02  0.78779334063E+02  0.47009806042E+02  0.12003684703E+03  0.61837136063E+02 0.  0.
       -6    2    1    2    0  504  0.50403831183E+02 -0.18262930657E+03 -0.35035590950E+03  0.43536122720E+03  0.17577293595E+03 0.  0.
      -24    2    5    5    0    0 -0.15362285295E+02 -0.17157708999E+03 -0.27926795286E+03  0.33777577159E+03  0.80169724691E+02 0.  0.
        5    1    3    3  501    0 -0.96975366589E+02  0.10384997251E+03  0.11004589582E+03  0.17978105490E+03  0.47000000000E+01 0. -1.
        2    1    4    4  502    0  0.24852406448E+02  0.10073205125E+02  0.39287427167E+02  0.47566937059E+02  0.00000000000E+00 0. -1.
       -1    1    4    4    0  502  0.21719128958E+02  0.68706128938E+02  0.77223788747E+01  0.72469909976E+02  0.00000000000E+00 0.  1.
       -5    1    5    5    0  504  0.65766116478E+02 -0.11052216574E+02 -0.71087956645E+02  0.97585455615E+02  0.47000000000E+01 0.  1.
       11    1    6    6    0    0 -0.26422913774E+02 -0.42604398314E+02 -0.34406486163E+02  0.60803876670E+02  0.00000000000E+00 0. -1.
      -12    1    6    6    0    0  0.11060628480E+02 -0.12897269168E+03 -0.24486146670E+03  0.27697189492E+03  0.00000000000E+00 0.  1.
</event>
<event>
12   0  0.1544783E-01  0.2688313E+03  0.7957747E-01  0.1109690E+00
       -2   -1    0    0    0  501  0.00000000000E+00  0.00000000000E+00  0.21593431007E+03  0.21593431007E+03  0.00000000000E+00 0.  1.
        2   -1    0    0  502    0  0.00000000000E+00  0.00000000000E+00 -0.39036639439E+03  0.39036639439E+03  0.00000000000E+00 0. -1.
        6    2    1    2  502    0 -0.51389567585E+02  0.19947600013E+03  0.27107695810E+02  0.27078660543E+03  0.17366345680E+03 0.  0.
       24    2    3    3    0    0 -0.16350219709E+02  0.21217977990E+03  0.40903169740E+02  0.23076727234E+03  0.79327649701E+02 0.  0.
       -6    2    1    2    0  501  0.51389567585E+02 -0.19947600013E+03 -0.20153978014E+03  0.33551409903E+03  0.17181346100E+03 0.  0.
      -24    2    5    5    0    0  0.94316126808E+02 -0.15667364347E+03 -0.18458730208E+03  0.27239351811E+03  0.81753252456E+02 0.  0.
        5    1    3    3  502    0 -0.35039347877E+02 -0.12703779771E+02 -0.13795473930E+02  0.40019333091E+02  0.47000000000E+01 0. -1.
        2    1    4    4  503    0  0.23747847118E+02  0.10852084112E+03 -0.33444161967E+01  0.11113918445E+03  0.00000000000E+00 0. -1.
       -1    1    4    4    0  503 -0.40098066826E+02  0.10365893878E+03  0.44247585936E+02  0.11962808789E+03  0.00000000000E+00 0.  1.
       -5    1    5    5    0  501 -0.42926559223E+02 -0.42802356663E+02 -0.16952478060E+02  0.63120580914E+02  0.47000000000E+01 0.  1.
       13    1    6    6    0    0  0.24816143938E+02 -0.10220785516E+03 -0.13495969045E+03  0.17110349120E+03  0.00000000000E+00 0. -1.
      -14    1    6    6    0    0  0.69499982870E+02 -0.54465788305E+02 -0.49627611633E+02  0.10129002691E+03  0.00000000000E+00 0.  1.
</event>
<event>
12   0  0.1544783E-01  0.4137222E+03  0.7957747E-01  0.1048486E+00
       21   -1    0    0  501  503  0.00000000000E+00  0.00000000000E+00  0.95650310250E+03  0.95650310250E+03  0.00000000000E+00 0. -1.
       21   -1    0    0  503  504  0.00000000000E+00  0.00000000000E+00 -0.18157662509E+03  0.18157662509E+03  0.00000000000E+00 0.  1.
        6    2    1    2  501    0  0.27923201539E+03 -0.25238391567E+03  0.31800631409E+03  0.52181807949E+03  0.17174962292E+03 0.  0.
       24    2    3    3    0    0  0.46274270506E+02 -0.59698860316E+02  0.77526698533E+02  0.13549001041E+03  0.81497803050E+02 0.  0.
       -6    2    1    2    0  504 -0.27923201539E+03  0.25238391567E+03  0.45692016332E+03  0.61626164810E+03  0.17127236779E+03 0.  0.
      -24    2    5    5    0    0 -0.25674558349E+03  0.18484564914E+03  0.29856783499E+03  0.44258203803E+03  0.81546916893E+02 0.  0.
        5    1    3    3  501    0  0.23295774488E+03 -0.19268505535E+03  0.24047961556E+03  0.38632806908E+03  0.47000000000E+01 0. -1.
        2    1    4    4  502    0  0.32828223177E+02  0.14194454646E+02  0.20860441943E+02  0.41404502384E+02  0.00000000000E+00 0. -1.
       -1    1    4    4    0  502  0.13446047330E+02 -0.73893314962E+02  0.56666256590E+02  0.94085508028E+02  0.00000000000E+00 0.  1.
       -5    1    5    5    0  504 -0.22486431898E+02  0.67538266530E+02  0.15835232833E+03  0.17367961007E+03  0.47000000000E+01 0.  1.
       13    1    6    6    0    0 -0.32216524585E+01  0.21771620641E+02  0.67302211639E+01  0.23014742815E+02  0.00000000000E+00 0. -1.
      -14    1    6    6    0    0 -0.25352393103E+03  0.16307402850E+03  0.29183761382E+03  0.41956729522E+03  0.00000000000E+00 0.  1.
</event>
<event>
12   0  0.1544783E-01  0.1742928E+03  0.7957747E-01  0.1178861E+00
       21   -1    0    0  501  503  0.00000000000E+00  0.00000000000E+00  0.13009932852E+03  0.13009932852E+03  0.00000000000E+00 0. -1.
       21   -1    0    0  503  504  0.00000000000E+00  0.00000000000E+00 -0.23456592651E+03  0.23456592651E+03  0.00000000000E+00 0. -1.
        6    2    1    2  501    0  0.17619104830E+02 -0.93995762854E+01 -0.34113230252E+02  0.17670890351E+03  0.17223106344E+03 0.  0.
       24    2    3    3    0    0 -0.28356342718E+02  0.47297495231E+02 -0.15325222180E+02  0.10118818488E+03  0.83444898567E+02 0.  0.
       -6    2    1    2    0  504 -0.17619104830E+02  0.93995762854E+01 -0.70353367735E+02  0.18795635152E+03  0.17314505143E+03 0.  0.
      -24    2    5    5    0    0  0.33515245188E+02  0.36619181241E+02 -0.85891724866E+02  0.12779690348E+03  0.80563168039E+02 0.  0.
        5    1    3    3  501    0  0.45975447549E+02 -0.56697071516E+02 -0.18788008072E+02  0.75520718635E+02  0.47000000000E+01 0. -1.
        2    1    4    4  502    0 -0.10736127484E+02  0.35812252657E+02  0.32120116920E+02  0.49289793920E+02  0.00000000000E+00 0. -1.
       -1    1    4    4    0  502 -0.17620215235E+02  0.11485242574E+02 -0.47445339100E+02  0.51898390960E+02  0.00000000000E+00 0.  1.
       -5    1    5    5    0  504 -0.51134350019E+02 -0.27219604956E+02  0.15538357131E+02  0.60159448037E+02  0.47000000000E+01 0.  1.
       13    1    6    6    0    0  0.38610117220E+02  0.10796288878E+02 -0.92366110982E+02  0.10069160572E+03  0.00000000000E+00 0. -1.
      -14    1    6    6    0    0 -0.50948720317E+01  0.25822892363E+02  0.64743861162E+01  0.27105297759E+02  0.00000000000E+00 0.  1.
</event>
<event>
12   0  0.1544783E-01  0.2547491E+03  0.7957747E-01  0.1117834E+00
       21   -1    0    0  501  503  0.00000000000E+00  0.00000000000E+00  0.56665211293E+03  0.56665211293E+03  0.00000000000E+00 0. -1.
       21   -1    0    0  503  504  0.00000000000E+00  0.00000000000E+00 -0.11469530096E+03  0.11469530096E+03  0.00000000000E+00 0.  1.
        6    2    1    2  501    0  0.17939296221E+03  0.53083448636E+02  0.24976879109E+03  0.35676540861E+03  0.17290870531E+03 0.  0.
       24    2    3    3    0    0  0.16240197208E+03 -0.16539301071E+02  0.19442393069E+03  0.26609477062E+03  0.79735895993E+02 0.  0.
       -6    2    1    2    0  504 -0.17939296221E+03 -0.53083448636E+02  0.20218802088E+03  0.32458200527E+03  0.17167933758E+03 0.  0.
      -24    2    5    5    0    0 -0.14987383283E+03 -0.10019285913E+03  0.16532922126E+03  0.25771395112E+03  0.81129245111E+02 0.  0.
        5    1    3    3  501    0  0.16990990128E+02  0.69622749707E+02  0.55344860399E+02  0.90670637998E+02  0.47000000000E+01 0. -1.
      -13    1    4    4    0    0  0.12656482866E+03  0.15607390163E+02  0.10775879957E+03  0.16695569881E+03  0.00000000000E+00 0.  1.
       14    1    4    4    0    0  0.35837143415E+02 -0.32146691234E+02  0.86665131121E+02  0.99139071802E+02  0.00000000000E+00 0. -1.
       -5    1    5    5    0  504 -0.29519129379E+02  0.47109410496E+02  0.36858799621E+02  0.66868054152E+02  0.47000000000E+01 0.  1.
        3    1    6    6  502    0 -0.87823254335E+01 -0.35345753395E+02  0.59630597097E+02  0.69873168192E+02  0.00000000000E+00 0. -1.
       -4    1    6    6    0  502 -0.14109150739E+03 -0.64847105738E+02  0.10569862416E+03  0.18784078293E+03  0.00000000000E+00 0.  1.
</event>
<event>
12   0  0.1544783E-01  0.2322662E+03  0.7957747E-01  0.1132101E+00
       21   -1    0    0  504  503  0.00000000000E+00  0.00000000000E+00  0.28587671202E+03  0.28587671202E+03  0.00000000000E+00 0. -1.
       21   -1    0    0  501  504  0.00000000000E+00  0.00000000000E+00 -0.20837418611E+03  0.20837418611E+03  0.00000000000E+00 0. -1.
        6    2    1    2  501    0 -0.15057507156E+03 -0.34500291490E+02 -0.37379081380E+02  0.23512666452E+03  0.17327501365E+03 0.  0.
       24    2    3    3    0    0 -0.68109468945E+02  0.62922976515E+01  0.42001048746E+02  0.11352113010E+03  0.80277432155E+02 0.  0.
       -6    2    1    2    0  503  0.15057507156E+03  0.34500291490E+02  0.11488160729E+03  0.25912423360E+03  0.17344873150E+03 0.  0.
      -24    2    5    5    0    0  0.59205546693E+02 -0.45005307872E+02  0.52720117726E+02  0.12290503088E+03  0.82434588053E+02 0.  0.
        5    1    3    3  501    0 -0.82465602619E+02 -0.40792589141E+02 -0.79380130126E+02  0.12160553443E+03  0.47000000000E+01 0. -1.
      -11    1    4    4    0    0 -0.92563631568E+01 -0.33220380962E+02  0.11524624277E+02  0.36360568407E+02  0.00000000000E+00 0.  1.
       12    1    4    4    0    0 -0.58853105789E+02  0.39512678614E+02  0.30476424468E+02  0.77160561692E+02  0.00000000000E+00 0. -1.
       -5    1    5    5    0  503  0.91369524872E+02  0.79505599362E+02  0.62161489561E+02  0.13621920272E+03  0.47000000000E+01 0.  1.
        1    1    6    6  502    0  0.42160902316E+02 -0.16787720027E+02  0.71708476667E+02  0.84861503956E+02  0.00000000000E+00 0. -1.
       -2    1    6    6    0  502  0.17044644377E+02 -0.28217587845E+02 -0.18988358941E+02  0.38043526927E+02  0.00000000000E+00 0.  1.
</event>
<event>
12   0  0.1544783E-01  0.3992585E+03  0.7957747E-01  0.1053281E+00
       21   -1    0    0  501  503  0.00000000000E+00  0.00000000000E+00  0.84248985810E+03  0.84248985810E+03  0.00000000000E+00 0.  1.
       21   -1    0    0  503  504  0.00000000000E+00  0.00000000000E+00 -0.19079243716E+03  0.19079243716E+03  0.00000000000E+00 0. -1.
        6    2    1    2  501    0  0.35255653212E+03  0.71476549248E+02  0.27865882118E+03  0.48687115020E+03  0.17316978038E+03 0.  0.
       24    2    3    3    0    0  0.14423741305E+03  0.45004512719E+02  0.19862083502E+03  0.26209171760E+03  0.80074932670E+02 0.  0.
       -6    2    1    2    0  504 -0.35255653212E+03 -0.71476549248E+02  0.37303859976E+03  0.54641114506E+03  0.17321182726E+03 0.  0.
      -24    2    5    5    0    0 -0.15184998194E+03 -0.93537173818E+02  0.15830071302E+03  0.25161589333E+03  0.80273421089E+02 0.  0.
        5    1    3    3  501    0  0.20831911908E+03  0.26472036529E+02  0.80037986160E+02  0.22477943260E+03  0.47000000000E+01 0. -1.
      -11    1    4    4    0    0  0.14240395166E+03  0.58362791637E+02  0.16382542424E+03  0.22477515548E+03  0.00000000000E+00 0.  1.
       12    1    4    4    0    0  0.18334613819E+01 -0.13358278918E+02  0.34795410786E+02  0.37316562114E+02  0.00000000000E+00 0. -1.
       -5    1    5    5    0  504 -0.20070655018E+03  0.22060624571E+02  0.21473788674E+03  0.29479525173E+03  0.47000000000E+01 0.  1.
        1    1    6    6  502    0 -0.97784637010E+02 -0.35561229424E+02  0.45066705137E+02  0.11339067063E+03  0.00000000000E+00 0. -1.
       -2    1    6    6    0  502 -0.54065344934E+02 -0.57975944395E+02  0.11323400788E+03  0.13822522271E+03  0.00000000000E+00 0.  1.
</event>
<event>
12   0  0.1544783E-01  0.2250311E+03  0.7957747E-01  0.1137071E+00
       21   -1    0    0  501  503  0.00000000000E+00  0.00000000000E+00  0.18657686639E+03  0.18657686639E+03  0.00000000000E+00 0.  1.
       21   -1    0    0  503  504  0.00000000000E+00  0.00000000000E+00 -0.30548013345E+03  0.30548013345E+03  0.00000000000E+00 0.  1.
        6    2    1    2  501    0  0.16746782376E+02 -0.14181629203E+03  0.22821825675E+02  0.22611526614E+03  0.17382451624E+03 0.  0.
       24    2    3    3    0    0  0.49688525765E+02 -0.21617163506E+02  0.26058940446E+02  0.10135326123E+03  0.81591444612E+02 0.  0.
       -6    2    1    2    0  504 -0.16746782376E+02  0.14181629203E+03 -0.14172509273E+03  0.26594173371E+03  0.17391575090E+03 0.  0.
      -24    2    5    5    0    0  0.41778201484E+01 -0.26529226099E+01 -0.45108042793E+02  0.90824237979E+02  0.78675374167E+02 0.  0.
        5    1    3    3  501    0 -0.32941743389E+02 -0.12019912853E+03 -0.32371147704E+01  0.12476200491E+03  0.47000000000E+01 0. -1.
      -11    1    4    4    0    0  0.63696202466E+02 -0.39125362609E+02  0.25300131248E+02  0.78918292234E+02  0.00000000000E+00 0.  1.
       12    1    4    4    0    0 -0.14007676701E+02  0.17508199104E+02  0.75880919788E+00  0.22434968995E+02  0.00000000000E+00 0. -1.
       -5    1    5    5    0  504 -0.20924602525E+02  0.14446921464E+03 -0.96617049940E+02  0.17511749573E+03  0.47000000000E+01 0.  1.
        3    1    6    6  502    0  0.39008870592E+02 -0.58545399323E+01 -0.88134150394E+01  0.40418361018E+02  0.00000000000E+00 0. -1.
       -4    1    6    6    0  502 -0.34831050444E+02  0.32016173224E+01 -0.36294627753E+02  0.50405876961E+02  0.00000000000E+00 0.  1.
</event>
<event>
12   0  0.1544783E-01  0.1829473E+03  0.7957747E-01  0.1170701E+00
       -1   -1    0    0    0  501  0.00000000000E+00  0.00000000000E+00  0.52407052156E+02  0.52407052156E+02  0.00000000000E+00 0.  1.
        1   -1    0    0  502    0  0.00000000000E+00  0.00000000000E+00 -0.66565159723E+03  0.66565159723E+03  0.00000000000E+00 0. -1.
        6    2    1    2  502    0 -0.55508577110E+02  0.17290400749E+02 -0.37811386563E+03  0.41982761842E+03  0.17293054592E+03 0.  0.
       24    2    3    3    0    0 -0.52130399698E+02 -0.52132771712E+02 -0.17215930338E+03  0.20241013828E+03  0.76783031191E+02 0.  0.
       -6    2    1    2    0  501  0.55508577110E+02 -0.17290400749E+02 -0.23513067944E+03  0.29823103097E+03  0.17399756127E+03 0.  0.
      -24    2    5    5    0    0  0.70402824301E+02 -0.48481110041E+02 -0.23551930945E+03  0.26334636415E+03  0.81086291603E+02 0.  0.
        5    1    3    3  502    0 -0.33781774123E+01  0.69423172461E+02 -0.20595456225E+03  0.21741748014E+03  0.47000000000E+01 0. -1.
      -11    1    4    4    0    0 -0.15041443398E+02  0.50062312426E+01  0.14456788485E+01  0.15918459664E+02  0.00000000000E+00 0.  1.
       12    1    4    4    0    0 -0.37088956300E+02 -0.57139002955E+02 -0.17360498223E+03  0.18649167862E+03  0.00000000000E+00 0. -1.
       -5    1    5    5    0  501 -0.14894247190E+02  0.31190709293E+02  0.38863001267E+00  0.34884666815E+02  0.47000000000E+01 0.  1.
        1    1    6    6  503    0  0.18823321425E+02 -0.45990132287E+02 -0.48915054382E+02  0.69728704580E+02  0.00000000000E+00 0. -1.
       -2    1    6    6    0  503  0.51579502876E+02 -0.24909777547E+01 -0.18660425507E+03  0.19361765957E+03  0.00000000000E+00 0.  1.
</event>
<event>
12   0  0.1544783E-01  0.2372485E+03  0.7957747E-01  0.1128791E+00
       21   -1    0    0  501  503  0.00000000000E+00  0.00000000000E+00  0.28439201547E+03  0.28439201547E+03  0.00000000000E+00 0.  1.
       21   -1    0    0  503  504  0.00000000000E+00  0.00000000000E+00 -0.43242414085E+03  0.43242414085E+03  0.00000000000E+00 0.  1.
        6    2    1    2  501    0  0.12338748023E+03  0.93347793093E+02  0.19324686892E+03  0.30117422535E+03  0.17153215709E+03 0.  0.
       24    2    3    3    0    0  0.12141004960E+03  0.12897200413E+03  0.16908256130E+03  0.25782681013E+03  0.80694321314E+02 0.  0.
       -6    2    1    2    0  504 -0.12338748023E+03 -0.93347793093E+02 -0.34127899430E+03  0.41564193097E+03  0.17985711573E+03 0.  0.
      -24    2    5    5    0    0 -0.11826425261E+03 -0.11830093460E+03 -0.34445027937E+03  0.38954492383E+03  0.71538158736E+02 0.  0.
        5    1    3    3  501    0  0.19774306351E+01 -0.35624211038E+02  0.24164307617E+02  0.43347415224E+02  0.47000000000E+01 0. -1.
        4    1    4    4  502    0  0.23030665074E+02  0.19270851291E+02  0.80449454238E+02  0.85871368514E+02  0.00000000000E+00 0. -1.
       -3    1    4    4    0  502  0.98379384522E+02  0.10970115284E+03  0.88633107066E+02  0.17195544162E+03  0.00000000000E+00 0.  1.
       -5    1    5    5    0  504 -0.51232276256E+01  0.24953141511E+02  0.31712850714E+01  0.26097007138E+02  0.47000000000E+01 0.  1.
       13    1    6    6    0    0 -0.55617342142E+02 -0.73498204385E+02 -0.11419967839E+03  0.14675435714E+03  0.00000000000E+00 0. -1.
      -14    1    6    6    0    0 -0.62646910464E+02 -0.44802730218E+02 -0.23025060097E+03  0.24279056669E+03  0.00000000000E+00 0.  1.
</event>
<event>
12   0  0.1544783E-01  0.2236624E+03  0.7957747E-01  0.1138035E+00
       21   -1    0    0  504  503  0.00000000000E+00  0.00000000000E+00  0.92613542404E+02  0.92613542404E+02  0.00000000000E+00 0. -1.
       21   -1    0    0  501  504  0.00000000000E+00  0.00000000000E+00 -0.54163805867E+03  0.54163805867E+03  0.00000000000E+00 0.  1.
        6    2    1    2  501    0 -0.13377167536E+03  0.47895084526E+02 -0.20051565423E+03  0.30038541342E+03  0.17273120376E+03 0.  0.
       24    2    3    3    0    0 -0.40932402566E+02 -0.26454261599E+02 -0.46570673055E+02  0.10578812908E+03  0.81529204152E+02 0.  0.
       -6    2    1    2    0  503  0.13377167536E+03 -0.47895084526E+02 -0.24850886204E+03  0.33386618766E+03  0.17181727647E+03 0.  0.
      -24    2    5    5    0    0  0.15787477211E+03 -0.21625997266E+02 -0.23541887475E+03  0.29559789810E+03  0.81018166770E+02 0.  0.
        5    1    3    3  501    0 -0.92839272798E+02  0.74349346125E+02 -0.15394498117E+03  0.19459728434E+03  0.47000000000E+01 0. -1.
        4    1    4    4  502    0  0.19132000545E+02 -0.29020597661E+02 -0.19494445624E+02  0.39853004198E+02  0.00000000000E+00 0. -1.
       -3    1    4    4    0  502 -0.60064403111E+02  0.25663360613E+01 -0.27076227432E+02  0.65935124886E+02  0.00000000000E+00 0.  1.
       -5    1    5    5    0  503 -0.24103096746E+02 -0.26269087260E+02 -0.13089987293E+02  0.38268289556E+02  0.47000000000E+01 0.  1.
       13    1    6    6    0    0  0.21171659852E+02  0.17643686928E+02 -0.10523439087E+02  0.29500536258E+02  0.00000000000E+00 0. -1.
      -14    1    6    6    0    0  0.13670311226E+03 -0.39269684194E+02 -0.22489543566E+03  0.26609736184E+03  0.00000000000E+00 0.  1.
</event>
<event>
12   0  0.1544783E-01  0.1972204E+03  0.7957747E-01  0.1158271E+00
       21   -1    0    0  501  503  0.00000000000E+00  0.00000000000E+00  0.17966476929E+03  0.17966476929E+03  0.00000000000E+00 0.  1.
       21   -1    0    0  503  504  0.00000000000E+00  0.00000000000E+00 -0.21533859381E+03  0.21533859381E+03  0.00000000000E+00 0.  1.
        6    2    1    2  501    0 -0.61466101940E+02 -0.68441309078E+02 -0.44559685031E+02  0.20219163751E+03  0.17445228079E+03 0.  0.
       24    2    3    3    0    0 -0.10804440488E+03 -0.66346253560E+02 -0.33834241823E+02  0.15411822808E+03  0.80822357780E+02 0.  0.
       -6    2    1    2    0  504  0.61466101940E+02  0.68441309078E+02  0.88858605098E+01  0.19281172558E+03  0.16921911396E+03 0.  0.
      -24    2    5    5    0    0  0.94426895131E+02  0.50656049099E+02  0.43857388917E+02  0.14135468370E+03  0.81087620553E+02 0.  0.
        5    1    3    3  501    0  0.46578302944E+02 -0.20950555182E+01 -0.10725443209E+02  0.48073409436E+02  0.47000000000E+01 0. -1.
        2    1    4    4  502    0 -0.46015579162E+02 -0.27830378821E+02 -0.56171534099E+02  0.77763775332E+02  0.00000000000E+00 0. -1.
       -1    1    4    4    0  502 -0.62028825723E+02 -0.38515874739E+02  0.22337292276E+02  0.76354452743E+02  0.00000000000E+00 0.  1.
       -5    1    5    5    0  504 -0.32960793191E+02  0.17785259979E+02 -0.34971528407E+02  0.51457041884E+02  0.47000000000E+01 0.  1.
       13    1    6    6    0    0  0.65108762480E+02  0.55738820504E+02  0.62647092773E+02  0.10616320123E+03  0.00000000000E+00 0. -1.
      -14    1    6    6    0    0  0.29318132651E+02 -0.50827714045E+01 -0.18789703856E+02  0.35191482468E+02  0.00000000000E+00 0.  1.
</event>
<event>
12   0  0.1544783E-01  0.1797517E+03  0.7957747E-01  0.1173655E+00
       21   -1    0    0  501  503  0.00000000000E+00  0.00000000000E+00  0.10271189295E+03  0.10271189295E+03  0.00000000000E+00 0.  1.
       21   -1    0    0  503  504  0.00000000000E+00  0.00000000000E+00 -0.36398269932E+03  0.36398269932E+03  0.00000000000E+00 0.  1.
        6    2    1    2  501    0 -0.22114393975E+02  0.41224518136E+02 -0.42772506449E+02  0.18375967001E+03  0.17248078646E+03 0.  0.
       24    2    3    3    0    0  0.33061613075E+02 -0.30246315464E+02  0.22952968005E+02  0.71981318789E+02  0.51444743717E+02 0.  0.
       -6    2    1    2    0  504  0.22114393975E+02 -0.41224518136E+02 -0.21849829993E+03  0.28293492226E+03  0.17355735607E+03 0.  0.
      -24    2    5    5    0    0  0.47023959984E+02 -0.32742212056E+02 -0.45709273133E+02  0.10809049491E+03  0.79441249840E+02 0.  0.
        5    1    3    3  501    0 -0.55176007050E+02  0.71470833599E+02 -0.65725474454E+02  0.11177835122E+03  0.47000000000E+01 0. -1.
      -11    1    4    4    0    0  0.40382694350E+02 -0.38665036917E+01  0.10493493020E+02  0.41902568531E+02  0.00000000000E+00 0.  1.
       12    1    4    4    0    0 -0.73210812749E+01 -0.26379811772E+02  0.12459474984E+02  0.30078750257E+02  0.00000000000E+00 0. -1.
       -5    1    5    5    0  504 -0.24909566009E+02 -0.84823060794E+01 -0.17278902680E+03  0.17484442735E+03  0.47000000000E+01 0.  1.
        3    1    6    6  502    0  0.68445320119E+00  0.24177304241E+02 -0.73812341501E+01  0.25288201481E+02  0.00000000000E+00 0. -1.
       -4    1    6    6    0  502  0.46339506783E+02 -0.56919516298E+02 -0.38328038983E+02  0.82802293427E+02  0.00000000000E+00 0.  1.
</event>
<event>
12   0  0.1544783E-01  0.1837932E+03  0.7957747E-01  0.1169930E+00
       21   -1    0    0  501  503  0.00000000000E+00  0.00000000000E+00  0.21631287432E+03  0.21631287432E+03  0.00000000000E+00 0.  1.
       21   -1    0    0  503  504  0.00000000000E+00  0.00000000000E+00 -0.16376540378E+03  0.16376540378E+03  0.00000000000E+00 0.  1.
        6    2    1    2  501    0 -0.70976271265E+01 -0.60805964253E+02 -0.16081119517E+02  0.18449533878E+03  0.17329796890E+03 0.  0.
       24    2    3    3    0    0 -0.39392454190E+02 -0.61581554013E+02  0.42706017500E+02  0.11725268213E+03  0.81119259694E+02 0.  0.
       -6    2    1    2    0  504  0.70976271265E+01  0.60805964253E+02  0.68628590063E+02  0.19558293933E+03  0.17261245952E+03 0.  0.
      -24    2    5    5    0    0  0.90944082354E+01  0.17137305517E+02  0.10588017696E+03  0.13795734070E+03  0.86285691050E+02 0.  0.
        5    1    3    3  501    0  0.32294827064E+02  0.77558976000E+00 -0.58787137017E+02  0.67242656649E+02  0.47000000000E+01 0. -1.
      -13    1    4    4    0    0 -0.47939648228E+02 -0.77209388275E+02  0.31391670698E+02  0.96150592818E+02  0.00000000000E+00 0.  1.
       14    1    4    4    0    0  0.85471940375E+01  0.15627834262E+02  0.11314346802E+02  0.21102089309E+02  0.00000000000E+00 0. -1.
       -5    1    5    5    0  504 -0.19967811089E+01  0.43668658736E+02 -0.37251586893E+02  0.57625598623E+02  0.47000000000E+01 0.  1.
        3    1    6    6  502    0 -0.37538653661E+02  0.18359347638E+01  0.32555265331E+02  0.49722896898E+02  0.00000000000E+00 0. -1.
       -4    1    6    6    0  502  0.46633061896E+02  0.15301370753E+02  0.73324911625E+02  0.88234443805E+02  0.00000000000E+00 0.  1.
</event>
<event>
12   0  0.1544783E-01  0.2149200E+03  0.7957747E-01  0.1144371E+00
       21   -1    0    0  504  503  0.00000000000E+00  0.00000000000E+00  0.60680834079E+02  0.60680834079E+02  0.00000000000E+00 0. -1.
       21   -1    0    0  501  504  0.00000000000E+00  0.00000000000E+00 -0.72733037979E+03  0.72733037979E+03  0.00000000000E+00 0.  1.
        6    2    1    2  501    0  0.89475131970E+02  0.91173940685E+02 -0.26501758869E+03  0.33249083493E+03  0.15491076883E+03 0.  0.
       24    2    3    3    0    0  0.81151577661E+02  0.56583217201E+02 -0.88724424775E+02  0.15258205430E+03  0.74980135474E+02 0.  0.
       -6    2    1    2    0  503 -0.89475131970E+02 -0.91173940685E+02 -0.40163195702E+03  0.45552037893E+03  0.17283547096E+03 0.  0.
      -24    2    5    5    0    0 -0.23722467135E+02  0.11649572078E+02 -0.22639552509E+03  0.24191798011E+03  0.81061133354E+02 0.  0.
        5    1    3    3  501    0  0.83235543086E+01  0.34590723484E+02 -0.17629316392E+03  0.17990878064E+03  0.47000000000E+01 0. -1.
        4    1    4    4  502    0  0.80535508526E+02  0.21925119142E+02 -0.39407889704E+02  0.92302008396E+02  0.00000000000E+00 0. -1.
       -3    1    4    4    0  502  0.61606913464E+00  0.34658098059E+02 -0.49316535072E+02  0.60280045900E+02  0.00000000000E+00 0.  1.
       -5    1    5    5    0  503 -0.65752664835E+02 -0.10282351276E+03 -0.17523643193E+03  0.21360239882E+03  0.47000000000E+01 0.  1.
       13    1    6    6    0    0 -0.13411685850E+02  0.21575423687E+01  0.14323813317E+01  0.13659429809E+02  0.00000000000E+00 0. -1.
      -14    1    6    6    0    0 -0.10310781284E+02  0.94920297090E+01 -0.22782790642E+03  0.22825855030E+03  0.00000000000E+00 0.  1.
</event>
<event>
12   0  0.1544783E-01  0.2037455E+03  0.7957747E-01  0.1152967E+00
       21   -1    0    0  504  503  0.00000000000E+00  0.00000000000E+00  0.61825249425E+02  0.61825249425E+02  0.00000000000E+00 0. -1.
       21   -1    0    0  501  504  0.00000000000E+00  0.00000000000E+00 -0.67521788987E+03  0.67521788987E+03  0.00000000000E+00 0. -1.
        6    2    1    2  501    0  0.87631446899E+02  0.61782975314E+02 -0.33755378245E+03  0.39411557381E+03  0.17288181786E+03 0.  0.
       24    2    3    3    0    0  0.56740009708E+02  0.33050923305E+02 -0.75353486268E+02  0.12850138551E+03  0.80763023430E+02 0.  0.
       -6    2    1    2    0  503 -0.87631446899E+02 -0.61782975314E+02 -0.27583885799E+03  0.34292756549E+03  0.17325078085E+03 0.  0.
      -24    2    5    5    0    0  0.29870746117E+00 -0.78178191844E+02 -0.13679664188E+03  0.17753305822E+03  0.81809208686E+02 0.  0.
        5    1    3    3  501    0  0.30891437192E+02  0.28732052009E+02 -0.26220029618E+03  0.26561418829E+03  0.47000000000E+01 0. -1.
      -13    1    4    4    0    0 -0.76422010328E+01  0.31682259565E+02 -0.49158522739E+02  0.58980752502E+02  0.00000000000E+00 0.  1.
       14    1    4    4    0    0  0.64382210740E+02  0.13686637397E+01 -0.26194963529E+02  0.69520633013E+02  0.00000000000E+00 0. -1.
       -5    1    5    5    0  503 -0.87930154361E+02  0.16395216530E+02 -0.13904221612E+03  0.16539450727E+03  0.47000000000E+01 0.  1.
        1    1    6    6  502    0  0.86056322085E+01 -0.46444771129E+02 -0.12332218944E+02  0.48818616275E+02  0.00000000000E+00 0. -1.
       -2    1    6    6    0  502 -0.83069247473E+01 -0.31733420715E+02 -0.12446442293E+03  0.12871444194E+03  0.00000000000E+00 0.  1.
</event>
<event>
12   0  0.1544783E-01  0.1796203E+03  0.7957747E-01  0.1173778E+00
       21   -1    0    0  504  503  0.00000000000E+00  0.00000000000E+00  0.82678274006E+02  0.82678274006E+02  0.00000000000E+00 0.  1.
       21   -1    0    0  501  504  0.00000000000E+00  0.00000000000E+00 -0.75966112173E+03  0.75966112173E+03  0.00000000000E+00 0.  1.
        6    2    1    2  501    0  0.44735910818E+02  0.13613288276E+02 -0.63422383319E+03  0.65916866488E+03  0.17342674200E+03 0.  0.
       24    2    3    3    0    0  0.49752073901E+02  0.42919164405E+02 -0.20994499970E+03  0.23382337595E+03  0.79241054454E+02 0.  0.
       -6    2    1    2    0  503 -0.44735910818E+02 -0.13613288276E+02 -0.42759014529E+02  0.18317073085E+03  0.17186203764E+03 0.  0.
      -24    2    5    5    0    0 -0.52584060448E+02  0.37920009233E+02 -0.69703471392E+02  0.12430335482E+03  0.79935846669E+02 0.  0.
        5    1    3    3  501    0 -0.50161630832E+01 -0.29305876129E+02 -0.42427883350E+03  0.42534528894E+03  0.47000000000E+01 0. -1.
      -13    1    4    4    0    0  0.38670651265E+02  0.12125156421E+02 -0.19253384275E+03  0.19675293973E+03  0.00000000000E+00 0.  1.
       14    1    4    4    0    0  0.11081422636E+02  0.30794007983E+02 -0.17411156949E+02  0.37070436221E+02  0.00000000000E+00 0. -1.
       -5    1    5    5    0  503  0.78481496297E+01 -0.51533297508E+02  0.26944456863E+02  0.58867376028E+02  0.47000000000E+01 0.  1.
        1    1    6    6  502    0 -0.30516788830E+02  0.38294171478E+02  0.22728885185E+01  0.49019220638E+02  0.00000000000E+00 0. -1.
       -2    1    6    6    0  502 -0.22067271618E+02 -0.37416224554E+00 -0.71976359911E+02  0.75284134186E+02  0.00000000000E+00 0.  1.
</event>
<event>
12   0  0.1544783E-01  0.1947489E+03  0.7957747E-01  0.1160339E+00
        2   -1    0    0  502    0  0.00000000000E+00  0.00000000000E+00  0.20729965158E+03  0.20729965158E+03  0.00000000000E+00 0.  1.
       -2   -1    0    0    0  501  0.00000000000E+00  0.00000000000E+00 -0.24119115483E+03  0.24119115483E+03  0.00000000000E+00 0. -1.
        6    2    1    2  502    0  0.11433280650E+02 -0.84834969843E+02 -0.12721954653E+03  0.23390139669E+03  0.17662773944E+03 0.  0.
       24    2    3    3    0    0  0.58343634616E+02 -0.13570683787E+02 -0.30070516155E+02  0.10452132141E+03  0.80201792559E+02 0.  0.
       -6    2    1    2    0  501 -0.11433280650E+02  0.84834969843E+02  0.93328043274E+02  0.21458940973E+03  0.17323625224E+03 0.  0.
      -24    2    5    5    0    0 -0.74779167629E+02  0.51744026200E+02  0.55924762421E+02  0.13378837405E+03  0.80637347553E+02 0.  0.
        5    1    3    3  502    0 -0.46910353965E+02 -0.71264286056E+02 -0.97149030371E+02  0.12938007527E+03  0.47000000000E+01 0. -1.
      -11    1    4    4    0    0  0.11831986833E+02 -0.28895186647E+02  0.17882252047E+02  0.35981976906E+02  0.00000000000E+00 0.  1.
       12    1    4    4    0    0  0.46511647783E+02  0.15324502860E+02 -0.47952768202E+02  0.68539344508E+02  0.00000000000E+00 0. -1.
       -5    1    5    5    0  501  0.63345886978E+02  0.33090943643E+02  0.37403280853E+02  0.80801035679E+02  0.47000000000E+01 0.  1.
        3    1    6    6  503    0 -0.68779161184E+02  0.31680056853E+02  0.17916805821E+01  0.75745687235E+02  0.00000000000E+00 0. -1.
       -4    1    6    6    0  503 -0.60000064446E+01  0.20063969347E+02  0.54133081839E+02  0.58042686815E+02  0.00000000000E+00 0.  1.
</event>
<event>
12   0  0.1544783E-01  0.2711978E+03  0.7957747E-01  0.1108375E+00
       21   -1    0    0  504  503  0.00000000000E+00  0.00000000000E+00  0.25858279902E+03  0.25858279902E+03  0.00000000000E+00 0. -1.
       21   -1    0    0  501  504  0.00000000000E+00  0.00000000000E+00 -0.30470219957E+03  0.30470219957E+03  0.00000000000E+00 0. -1.
        6    2    1    2  501    0  0.20780110168E+03 -0.87593096016E+01  0.50627509287E+02  0.27588297004E+03  0.17404092938E+03 0.  0.
       24    2    3    3    0    0  0.82768366585E+02 -0.47013205873E+02  0.71283535696E+02  0.14342427138E+03  0.80176898951E+02 0.  0.
       -6    2    1    2    0  503 -0.20780110168E+03  0.87593096016E+01 -0.96746909841E+02  0.28740202855E+03  0.17315293265E+03 0.  0.
      -24    2    5    5    0    0 -0.40900227477E+02  0.42639064037E+02 -0.53095049380E+02  0.11152902183E+03  0.78286142148E+02 0.  0.
        5    1    3    3  501    0  0.12503273509E+03  0.38253896271E+02 -0.20656026408E+02  0.13245869866E+03  0.47000000000E+01 0. -1.
        4    1    4    4  502    0  0.17731275317E+02 -0.10613796823E+02 -0.17800560872E+02  0.27274727766E+02  0.00000000000E+00 0. -1.
       -3    1    4    4    0  502  0.65037091268E+02 -0.36399409050E+02  0.89084096568E+02  0.11614954361E+03  0.00000000000E+00 0.  1.
       -5    1    5    5    0  503 -0.16690087420E+03 -0.33879754435E+02 -0.43651860460E+02  0.17587300672E+03  0.47000000000E+01 0.  1.
       13    1    6    6    0    0 -0.52972656276E+02  0.52759504793E+02 -0.58439465433E+02  0.94893828983E+02  0.00000000000E+00 0. -1.
      -14    1    6    6    0    0  0.12072428798E+02 -0.10120440756E+02  0.53444160527E+01  0.16635192849E+02  0.00000000000E+00 0.  1.
</event>
<event>
12   0  0.1544783E-01  0.1877966E+03  0.7957747E-01  0.1166342E+00
       21   -1    0    0  501  503  0.00000000000E+00  0.00000000000E+00  0.38632569488E+03  0.38632569488E+03  0.00000000000E+00 0.  1.
       21   -1    0    0  503  504  0.00000000000E+00  0.00000000000E+00 -0.15525920638E+03  0.15525920638E+03  0.00000000000E+00 0. -1.
        6    2    1    2  501    0  0.29392146362E+02 -0.37807272220E+02  0.29322468971E+03  0.34376879462E+03  0.17292477382E+03 0.  0.
       24    2    3    3    0    0 -0.30226620659E+02 -0.70962007875E+02  0.21073018976E+03  0.23661905641E+03  0.75047383832E+02 0.  0.
       -6    2    1    2    0  504 -0.29392146362E+02  0.37807272220E+02 -0.62158201207E+02  0.19781610664E+03  0.18158822089E+03 0.  0.
      -24    2    5    5    0    0 -0.20742696526E+01  0.70286939522E+02  0.15038948575E+02  0.10959657869E+03  0.82708425358E+02 0.  0.
        5    1    3    3  501    0  0.59618767021E+02  0.33154735655E+02  0.82494499950E+02  0.10714973821E+03  0.47000000000E+01 0. -1.
      -11    1    4    4    0    0  0.28833885920E+01 -0.62775081499E+02  0.18020208720E+03  0.19084500784E+03  0.00000000000E+00 0.  1.
       12    1    4    4    0    0 -0.33110009251E+02 -0.81869263764E+01  0.30528102563E+02  0.45774048567E+02  0.00000000000E+00 0. -1.
       -5    1    5    5    0  504 -0.27317876710E+02 -0.32479667302E+02 -0.77197149782E+02  0.88219527943E+02  0.47000000000E+01 0.  1.
        1    1    6    6  502    0  0.31684571389E+02  0.34983431084E+01 -0.46493186390E+01  0.32214385489E+02  0.00000000000E+00 0. -1.
       -2    1    6    6    0  502 -0.33758841041E+02  0.66788596414E+02  0.19688267214E+02  0.77382193205E+02  0.00000000000E+00 0.  1.
</event>
<event>
12   0  0.1544783E-01  0.1821019E+03  0.7957747E-01  0.1171476E+00
       -1   -1    0    0    0  501  0.00000000000E+00  0.00000000000E+00  0.63559813101E+02  0.63559813101E+02  0.00000000000E+00 0.  1.
        1   -1    0    0  502    0  0.00000000000E+00  0.00000000000E+00 -0.54140121776E+03  0.54140121776E+03  0.00000000000E+00 0. -1.
        6    2    1    2  502    0  0.53623571599E+02 -0.20048407507E+02 -0.29491017668E+03  0.34593018232E+03  0.17151749957E+03 0.  0.
       24    2    3    3    0    0  0.21571282877E+02  0.29459734865E+02 -0.65516539536E+02  0.10902949399E+03  0.79131645900E+02 0.  0.
       -6    2    1    2    0  501 -0.53623571599E+02  0.20048407507E+02 -0.18293122798E+03  0.25903084854E+03  0.17422893057E+03 0.  0.
      -24    2    5    5    0    0  0.61044390624E+01 -0.30160069524E+02 -0.32173089485E+02  0.89212025241E+02  0.77309661689E+02 0.  0.
        5    1    3    3  502    0  0.32052288721E+02 -0.49508142372E+02 -0.22939363714E+03  0.23690068834E+03  0.47000000000E+01 0. -1.
        2    1    4    4  503    0  0.35910510520E+02  0.47986374353E+02 -0.60317296186E+02  0.85031953456E+02  0.00000000000E+00 0. -1.
       -1    1    4    4    0  503 -0.14339227643E+02 -0.18526639488E+02 -0.51992433499E+01  0.23997540531E+02  0.00000000000E+00 0.  1.
       -5    1    5    5    0  501 -0.59728010661E+02  0.50208477031E+02 -0.15075813850E+03  0.16981882330E+03  0.47000000000E+01 0.  1.
       13    1    6    6    0    0  0.28417472389E+02  0.64446298355E+01  0.82558101736E+01  0.30286042864E+02  0.00000000000E+00 0. -1.
      -14    1    6    6    0    0 -0.22313033327E+02 -0.36604699360E+02 -0.40428899659E+02  0.58925982377E+02  0.00000000000E+00 0.  1.
</event>
<event>
12   0  0.1544783E-01  0.1768287E+03  0.7957747E-01  0.1176417E+00
       21   -1    0    0  501  503  0.00000000000E+00  0.00000000000E+00  0.52187569795E+02  0.52187569795E+02  0.00000000000E+00 0.  1.
       21   -1    0    0  503  504  0.00000000000E+00  0.00000000000E+00 -0.66650111042E+03  0.66650111042E+03  0.00000000000E+00 0.  1.
        6    2    1    2  501    0 -0.15133052111E+00 -0.39465573985E+01 -0.17876511653E+03  0.24861334599E+03  0.17273109361E+03 0.  0.
       24    2    3    3    0    0 -0.37446683104E+02 -0.53804823281E+02 -0.77271957925E+02  0.12945067883E+03  0.80556251670E+02 0.  0.
       -6    2    1    2    0  504  0.15133052111E+00  0.39465573985E+01 -0.43554842409E+03  0.47007533422E+03  0.17678459181E+03 0.  0.
      -24    2    5    5    0    0 -0.44470112904E+02 -0.46434829746E+02 -0.19412434158E+03  0.21940217052E+03  0.79493824172E+02 0.  0.
        5    1    3    3  501    0  0.37295352583E+02  0.49858265882E+02 -0.10149315861E+03  0.11916266716E+03  0.47000000000E+01 0. -1.
      -11    1    4    4    0    0 -0.20582509942E+01 -0.66613987306E+01  0.16938942451E+02  0.18317707323E+02  0.00000000000E+00 0.  1.
       12    1    4    4    0    0 -0.35388432110E+02 -0.47143424550E+02 -0.94210900375E+02  0.11113297150E+03  0.00000000000E+00 0. -1.
       -5    1    5    5    0  504  0.44621443425E+02  0.50381387145E+02 -0.24142408251E+03  0.25067316370E+03  0.47000000000E+01 0.  1.
        1    1    6    6  502    0 -0.41325328836E+02  0.12143455374E+02 -0.93096910915E+02  0.10257817084E+03  0.00000000000E+00 0. -1.
       -2    1    6    6    0  502 -0.31447840677E+01 -0.58578285120E+02 -0.10102743066E+03  0.11682399968E+03  0.00000000000E+00 0.  1.
</event>
<event>
12   0  0.1544783E-01  0.2053504E+03  0.7957747E-01  0.1151696E+00
       21   -1    0    0  504  503  0.00000000000E+00  0.00000000000E+00  0.76308735034E+02  0.76308735034E+02  0.00000000000E+00 0. -1.
       21   -1    0    0  501  504  0.00000000000E+00  0.00000000000E+00 -0.56909781188E+03  0.56909781188E+03  0.00000000000E+00 0. -1.
        6    2    1    2  501    0 -0.30853238530E+02 -0.10586794280E+03 -0.34675537527E+03  0.40299883593E+03  0.17323056267E+03 0.  0.
       24    2    3    3    0    0  0.44089111749E+02 -0.89819403797E+02 -0.22007203107E+03  0.25486149706E+03  0.80692680901E+02 0.  0.
       -6    2    1    2    0  503  0.30853238530E+02  0.10586794280E+03 -0.14603370157E+03  0.24240771098E+03  0.15898337243E+03 0.  0.
      -24    2    5    5    0    0 -0.36754374987E+02  0.79846618813E+02 -0.73966836739E+02  0.14011586519E+03  0.80218427593E+02 0.  0.
        5    1    3    3  501    0 -0.74942350280E+02 -0.16048539001E+02 -0.12668334420E+03  0.14813733887E+03  0.47000000000E+01 0. -1.
      -13    1    4    4    0    0 -0.73738118752E+01 -0.13222946237E+02  0.11308840555E+01  0.15182170711E+02  0.00000000000E+00 0.  1.
       14    1    4    4    0    0  0.51462923625E+02 -0.76596457560E+02 -0.22120291513E+03  0.23967932635E+03  0.00000000000E+00 0. -1.
       -5    1    5    5    0  503  0.67607613517E+02  0.26021323985E+02 -0.72066864828E+02  0.10229184578E+03  0.47000000000E+01 0.  1.
        3    1    6    6  502    0  0.50424977410E+00  0.57461781617E+02 -0.77530224658E+02  0.96504126077E+02  0.00000000000E+00 0. -1.
       -4    1    6    6    0  502 -0.37258624761E+02  0.22384837196E+02  0.35633879193E+01  0.43611739117E+02  0.00000000000E+00 0.  1.
</event>
<event>
12   0  0.1544783E-01  0.1805564E+03  0.7957747E-01  0.1172905E+00
       21   -1    0    0  504  503  0.00000000000E+00  0.00000000000E+00  0.61698285579E+03  0.61698285579E+03  0.00000000000E+00 0. -1.
       21   -1    0    0  501  504  0.00000000000E+00  0.00000000000E+00 -0.11253883756E+03  0.11253883756E+03  0.00000000000E+00 0. -1.
        6    2    1    2  501    0 -0.27635315188E+02 -0.33787487324E+02 -0.13660097278E+02  0.18107235457E+03  0.17520072599E+03 0.  0.
       24    2    3    3    0    0  0.34058548279E+02  0.38316814418E+02 -0.21474116868E+02  0.85739715764E+02  0.65283981082E+02 0.  0.
       -6    2    1    2    0  503  0.27635315188E+02  0.33787487324E+02  0.51810411551E+03  0.54844933879E+03  0.17452649587E+03 0.  0.
      -24    2    5    5    0    0  0.12937064070E+02  0.76995290738E+02  0.46494010737E+03  0.47822502232E+03  0.80213627935E+02 0.  0.
        5    1    3    3  501    0 -0.61693863467E+02 -0.72104301742E+02  0.78140195904E+01  0.95332638804E+02  0.47000000000E+01 0. -1.
      -13    1    4    4    0    0 -0.18879765333E+02  0.13609040939E+02  0.61829424470E+00  0.23281619834E+02  0.00000000000E+00 0.  1.
       14    1    4    4    0    0  0.52938313612E+02  0.24707773479E+02 -0.22092411113E+02  0.62458095930E+02  0.00000000000E+00 0. -1.
       -5    1    5    5    0  503  0.14698251118E+02 -0.43207803415E+02  0.53164008141E+02  0.70224316468E+02  0.47000000000E+01 0.  1.
        1    1    6    6  502    0  0.43535529359E+02  0.66451113804E+02  0.34058980945E+03  0.34973205621E+03  0.00000000000E+00 0. -1.
       -2    1    6    6    0  502 -0.30598465289E+02  0.10544176934E+02  0.12435029792E+03  0.12849296611E+03  0.00000000000E+00 0.  1.
</event>
<event>
12   0  0.1544783E-01  0.2007478E+03  0.7957747E-01  0.1155376E+00
       21   -1    0    0  501  503  0.00000000000E+00  0.00000000000E+00  0.19615523660E+03  0.19615523660E+03  0.00000000000E+00 0. -1.
       21   -1    0    0  503  504  0.00000000000E+00  0.00000000000E+00 -0.26910976411E+03  0.26910976411E+03  0.00000000000E+00 0. -1.
        6    2    1    2  501    0  0.10031875191E+03  0.11913015721E+02  0.78370968728E+02  0.21387073645E+03  0.17144360951E+03 0.  0.
       24    2    3    3    0    0  0.47532047240E+02  0.99919904751E+01 -0.26125931507E+02  0.96687893478E+02  0.79415672632E+02 0.  0.
       -6    2    1    2    0  504 -0.10031875191E+03 -0.11913015721E+02 -0.15132549623E+03  0.25139426427E+03  0.17347593023E+03 0.  0.
      -24    2    5    5    0    0 -0.11188528621E+03  0.28355823811E+02 -0.80070676639E+02  0.16860112766E+03  0.93234419486E+02 0.  0.
        5    1    3    3  501    0  0.52786704667E+02  0.19210252458E+01  0.10449690023E+03  0.11718284297E+03  0.47000000000E+01 0. -1.
      -11    1    4    4    0    0  0.16415890615E+02  0.13669643675E+01 -0.52482706772E+02  0.55007131959E+02  0.00000000000E+00 0.  1.
       12    1    4    4    0    0  0.31116156625E+02  0.86250261077E+01  0.26356775265E+02  0.41680761519E+02  0.00000000000E+00 0. -1.
       -5    1    5    5    0  504  0.11566534306E+02 -0.40268839532E+02 -0.71254819596E+02  0.82793136604E+02  0.47000000000E+01 0.  1.
        3    1    6    6  502    0 -0.39928633192E+02  0.30804487791E+02 -0.82352359252E+02  0.96566677954E+02  0.00000000000E+00 0. -1.
       -4    1    6    6    0  502 -0.71956653022E+02 -0.24486639799E+01  0.22816826135E+01  0.72034449709E+02  0.00000000000E+00 0.  1.
</event>
<event>
12   0  0.1544783E-01  0.1737987E+03  0.7957747E-01  0.1179343E+00
       21   -1    0    0  501  503  0.00000000000E+00  0.00000000000E+00  0.19555122762E+03  0.19555122762E+03  0.00000000000E+00 0. -1.
       21   -1    0    0  503  504  0.00000000000E+00  0.00000000000E+00 -0.21077845442E+03  0.21077845442E+03  0.00000000000E+00 0. -1.
        6    2    1    2  501    0 -0.37466930568E+01  0.32363924736E+02  0.10212760225E+03  0.20158385784E+03  0.17071772980E+03 0.  0.
       24    2    3    3    0    0  0.12051626435E+01 -0.27092677453E+02  0.33159123508E+01  0.86061355796E+02  0.81609411824E+02 0.  0.
       -6    2    1    2    0  504  0.37466930568E+01 -0.32363924736E+02 -0.11735482905E+03  0.20474582419E+03  0.16458200171E+03 0.  0.
      -24    2    5    5    0    0 -0.59330267161E+02 -0.20646727213E+02 -0.59758973334E+02  0.11840134999E+03  0.80631115832E+02 0.  0.
        5    1    3    3  501    0 -0.49518557003E+01  0.59456602189E+02  0.98811689900E+02  0.11552250205E+03  0.47000000000E+01 0. -1.
      -11    1    4    4    0    0 -0.23183729924E+01  0.28830419877E+02  0.74732414651E+01  0.29873354375E+02  0.00000000000E+00 0.  1.
       12    1    4    4    0    0  0.35235356358E+01 -0.55923097330E+02 -0.41573291142E+01  0.56188001421E+02  0.00000000000E+00 0. -1.
       -5    1    5    5    0  504  0.63076960218E+02 -0.11717197523E+02 -0.57595855721E+02  0.86344474197E+02  0.47000000000E+01 0.  1.
        3    1    6    6  502    0 -0.51320225566E+02  0.25066666958E+00 -0.75320588745E+02  0.91142852022E+02  0.00000000000E+00 0. -1.
       -4    1    6    6    0  502 -0.80100415959E+01 -0.20897393883E+02  0.15561615411E+02  0.27258497971E+02  0.00000000000E+00 0.  1.
</event>
<event>
12   0  0.1544783E-01  0.1739329E+03  0.7957747E-01  0.1179212E+00
       21   -1    0    0  504  503  0.00000000000E+00  0.00000000000E+00  0.32612771642E+03  0.32612771642E+03  0.00000000000E+00 0. -1.
       21   -1    0    0  501  504  0.00000000000E+00  0.00000000000E+00 -0.94203857453E+02  0.94203857453E+02  0.00000000000E+00 0. -1.
        6    2    1    2  501    0 -0.98933139135E+01  0.11002704087E+02  0.84855789719E+02  0.19352816125E+03  0.17330235714E+03 0.  0.
       24    2    3    3    0    0  0.19532363007E+02 -0.15837737083E+02 -0.15507683289E+02  0.85448577340E+02  0.80178700463E+02 0.  0.
       -6    2    1    2    0  503  0.98933139135E+01 -0.11002704087E+02  0.14706806925E+03  0.22680341262E+03  0.17202277124E+03 0.  0.
      -24    2    5    5    0    0  0.11551893753E+02  0.60459434928E+02  0.83960284220E+02  0.13133472283E+03  0.80066788199E+02 0.  0.
        5    1    3    3  501    0 -0.29425676920E+02  0.26840441170E+02  0.10036347301E+03  0.10807958391E+03  0.47000000000E+01 0. -1.
        4    1    4    4  502    0  0.48894905081E+02 -0.13891749121E+02 -0.21880617079E+02  0.55339441994E+02  0.00000000000E+00 0. -1.
       -3    1    4    4    0  502 -0.29362542074E+02 -0.19459879627E+01  0.63729337905E+01  0.30109135346E+02  0.00000000000E+00 0.  1.
       -5    1    5    5    0  503 -0.16585798390E+01 -0.71462139015E+02  0.63107785025E+02  0.95468689791E+02  0.47000000000E+01 0.  1.
       11    1    6    6    0    0 -0.28493006205E+02  0.49171825013E+02  0.62662683052E+02  0.84595104025E+02  0.00000000000E+00 0. -1.
      -12    1    6    6    0    0  0.40044899957E+02  0.11287609916E+02  0.21297601168E+02  0.46739618802E+02  0.00000000000E+00 0.  1.
</event>
<event>
12   0  0.1544783E-01  0.1779526E+03  0.7957747E-01  0.1175348E+00
       21   -1    0    0  504  503  0.00000000000E+00  0.00000000000E+00  0.47259956961E+02  0.47259956961E+02  0.00000000000E+00 0.  1.
       21   -1    0    0  501  504  0.00000000000E+00  0.00000000000E+00 -0.66608412521E+03  0.66608412521E+03  0.00000000000E+00 0.  1.
        6    2    1    2  501    0  0.21655662947E+02 -0.28555119648E+02 -0.31633234951E+03  0.36295079556E+03  0.17430651754E+03 0.  0.
       24    2    3    3    0    0 -0.57461617012E+02 -0.16178692296E+02 -0.16265474631E+03  0.18959677724E+03  0.76985608584E+02 0.  0.
       -6    2    1    2    0  503 -0.21655662947E+02  0.28555119648E+02 -0.30249181874E+03  0.35039328661E+03  0.17317561116E+03 0.  0.
      -24    2    5    5    0    0 -0.60130652603E+02 -0.28795096574E+02 -0.14492324484E+03  0.17829064976E+03  0.79623840199E+02 0.  0.
        5    1    3    3  501    0  0.79117279959E+02 -0.12376427352E+02 -0.15367760320E+03  0.17335401832E+03  0.47000000000E+01 0. -1.
      -13    1    4    4    0    0 -0.18515709628E+02 -0.11644702741E+02  0.41753528745E+00  0.21877041406E+02  0.00000000000E+00 0.  1.
       14    1    4    4    0    0 -0.38945907384E+02 -0.45339895550E+01 -0.16307228160E+03  0.16771973584E+03  0.00000000000E+00 0. -1.
       -5    1    5    5    0  503  0.38474989656E+02  0.57350216223E+02 -0.15756857390E+03  0.17210263685E+03  0.47000000000E+01 0.  1.
        3    1    6    6  502    0 -0.10385413203E+02 -0.33978872415E+02 -0.11418544483E+03  0.11958568639E+03  0.00000000000E+00 0. -1.
       -4    1    6    6    0  502 -0.49745239400E+02  0.51837758407E+01 -0.30737800007E+02  0.58704963369E+02  0.00000000000E+00 0.  1.
</event>
<event>
12   0  0.1544783E-01  0.1825583E+03  0.7957747E-01  0.1171057E+00
       21   -1    0    0  504  503  0.00000000000E+00  0.00000000000E+00  0.32063670298E+03  0.32063670298E+03  0.00000000000E+00 0. -1.
       21   -1    0    0  501  504  0.00000000000E+00  0.00000000000E+00 -0.11439742302E+03  0.11439742302E+03  0.00000000000E+00 0. -1.
        6    2    1    2  501    0 -0.42696626424E+02  0.24582573745E+02  0.32328317106E+02  0.18539858762E+03  0.17578455951E+03 0.  0.
       24    2    3    3    0    0 -0.48651692662E+02  0.47447382802E+02  0.77808922153E+02  0.13393172699E+03  0.85236364277E+02 0.  0.
       -6    2    1    2    0  503  0.42696626424E+02 -0.24582573745E+02  0.17391096285E+03  0.24963553838E+03  0.17217890168E+03 0.  0.
      -24    2    5    5    0    0  0.58012499804E+02  0.27502424400E+02  0.49877268496E+02  0.11415908159E+03  0.80141877416E+02 0.  0.
        5    1    3    3  501    0  0.59550662375E+01 -0.22864809057E+02 -0.45480605047E+02  0.51466860624E+02  0.47000000000E+01 0. -1.
      -13    1    4    4    0    0 -0.39488878256E+02  0.66186882527E+02  0.31723788425E+02  0.83345507836E+02  0.00000000000E+00 0.  1.
       14    1    4    4    0    0 -0.91628144056E+01 -0.18739499725E+02  0.46085133728E+02  0.50586219156E+02  0.00000000000E+00 0. -1.
       -5    1    5    5    0  503 -0.15315873380E+02 -0.52084998145E+02  0.12403369436E+03  0.13547645679E+03  0.47000000000E+01 0.  1.
        1    1    6    6  502    0 -0.12898024520E+02  0.28146313727E+02  0.21913543883E+02  0.37931219575E+02  0.00000000000E+00 0. -1.
       -2    1    6    6    0  502  0.70910524324E+02 -0.64388932684E+00  0.27963724613E+02  0.76227862016E+02  0.00000000000E+00 0.  1.
</event>
<event>
12   0  0.1544783E-01  0.1962953E+03  0.7957747E-01  0.1159041E+00
       21   -1    0    0  501  503  0.00000000000E+00  0.00000000000E+00  0.52240070374E+03  0.52240070374E+03  0.00000000000E+00 0. -1.
       21   -1    0    0  503  504  0.00000000000E+00  0.00000000000E+00 -0.17905767635E+03  0.17905767635E+03  0.00000000000E+00 0. -1.
        6    2    1    2  501    0 -0.89837267991E+02 -0.22197356290E+01  0.44101129761E+03  0.48220754721E+03  0.17308232731E+03 0.  0.
       24    2    3    3    0    0  0.13240242657E+02  0.23591474299E+02  0.20418126476E+03  0.22258908443E+03  0.84404087250E+02 0.  0.
       -6    2    1    2    0  504  0.89837267991E+02  0.22197356290E+01 -0.97668270222E+02  0.21925083288E+03  0.17451697557E+03 0.  0.
      -24    2    5    5    0    0  0.11330780163E+03 -0.42861935085E+02 -0.70170052272E+02  0.16127269067E+03  0.80057736224E+02 0.  0.
        5    1    3    3  501    0 -0.10307751065E+03 -0.25811209928E+02  0.23683003285E+03  0.25961846278E+03  0.47000000000E+01 0. -1.
      -11    1    4    4    0    0 -0.63721893684E+01  0.47118619586E+02  0.17075604534E+03  0.17725235155E+03  0.00000000000E+00 0.  1.
       12    1    4    4    0    0  0.19612432025E+02 -0.23527145287E+02  0.33425219412E+02  0.45336732878E+02  0.00000000000E+00 0. -1.
       -5    1    5    5    0  504 -0.23470533641E+02  0.45081670714E+02 -0.27498217950E+02  0.57978142210E+02  0.47000000000E+01 0.  1.
        3    1    6    6  502    0  0.41800399679E+02 -0.43650579948E+02  0.91085878547E+00  0.60443992314E+02  0.00000000000E+00 0. -1.
       -4    1    6    6    0  502  0.71507401953E+02  0.78864486337E+00 -0.71080911058E+02  0.10082869835E+03  0.00000000000E+00 0.  1.
</event>
<event>
12   0  0.1544783E-01  0.1992772E+03  0.7957747E-01  0.1156575E+00
       21   -1    0    0  501  503  0.00000000000E+00  0.00000000000E+00  0.10309841874E+03  0.10309841874E+03  0.00000000000E+00 0.  1.
       21   -1    0    0  503  504  0.00000000000E+00  0.00000000000E+00 -0.38360915185E+03  0.38360915185E+03  0.00000000000E+00 0.  1.
        6    2    1    2  501    0  0.80347346056E+02  0.57915107998E+02 -0.12667317663E+03  0.23495887078E+03  0.17131760425E+03 0.  0.
       24    2    3    3    0    0  0.44809035647E+02 -0.44752503942E+01 -0.25525288665E+01  0.91489175274E+02  0.79598217612E+02 0.  0.
       -6    2    1    2    0  504 -0.80347346056E+02 -0.57915107998E+02 -0.15383755649E+03  0.25174869981E+03  0.17292067059E+03 0.  0.
      -24    2    5    5    0    0 -0.29259207831E+02  0.21486536210E+02 -0.12562512996E+03  0.15309450588E+03  0.79614583903E+02 0.  0.
        5    1    3    3  501    0  0.35538310409E+02  0.62390358392E+02 -0.12412064776E+03  0.14346969550E+03  0.47000000000E+01 0. -1.
        2    1    4    4  502    0  0.30861609959E+02 -0.35752681516E+02  0.19128503233E+02  0.50956774238E+02  0.00000000000E+00 0. -1.
       -1    1    4    4    0  502  0.13947425688E+02  0.31277431121E+02 -0.21681032099E+02  0.40532401036E+02  0.00000000000E+00 0.  1.
       -5    1    5    5    0  504 -0.51088138225E+02 -0.79401644208E+02 -0.28212426526E+02  0.98654193934E+02  0.47000000000E+01 0.  1.
       11    1    6    6    0    0 -0.42810136401E+02  0.30700778320E+02 -0.12614083630E+03  0.13669951043E+03  0.00000000000E+00 0. -1.
      -12    1    6    6    0    0  0.13550928570E+02 -0.92142421102E+01  0.51570633739E+00  0.16394995450E+02  0.00000000000E+00 0.  1.
</event>
<event>
12   0  0.1544783E-01  0.1776451E+03  0.7957747E-01  0.1175640E+00
        2   -1    0    0  502    0  0.00000000000E+00  0.00000000000E+00  0.98723994272E+03  0.98723994272E+03  0.00000000000E+00 0.  1.
       -2   -1    0    0    0  501  0.00000000000E+00  0.00000000000E+00 -0.46075120271E+02  0.46075120271E+02  0.00000000000E+00 0. -1.
        6    2    1    2  502    0  0.28225357213E+01 -0.18765138175E+02  0.19403572685E+03  0.26646368181E+03  0.18163956979E+03 0.  0.
       24    2    3    3    0    0  0.45432643308E+02 -0.52080490737E+02  0.18212200093E+03  0.21087986357E+03  0.80779892582E+02 0.  0.
       -6    2    1    2    0  501 -0.28225357213E+01  0.18765138175E+02  0.74712909560E+03  0.76685138117E+03  0.17175289868E+03 0.  0.
      -24    2    5    5    0    0  0.34920777594E+02  0.49215054157E+02  0.65407689516E+03  0.66181540120E+03  0.80879281771E+02 0.  0.
        5    1    3    3  502    0 -0.42610107586E+02  0.33315352562E+02  0.11913725924E+02  0.55583818241E+02  0.47000000000E+01 0. -1.
        4    1    4    4  503    0  0.58617965557E+02 -0.20710659206E+02  0.69589378432E+02  0.93314944577E+02  0.00000000000E+00 0. -1.
       -3    1    4    4    0  503 -0.13185322249E+02 -0.31369831532E+02  0.11253262249E+03  0.11756491900E+03  0.00000000000E+00 0.  1.
       -5    1    5    5    0  501 -0.37743313315E+02 -0.30449915981E+02  0.93052200434E+02  0.10503597997E+03  0.47000000000E+01 0.  1.
       11    1    6    6    0    0 -0.13710328199E+02  0.18762113477E+02  0.51347376772E+02  0.56360829508E+02  0.00000000000E+00 0. -1.
      -12    1    6    6    0    0  0.48631105793E+02  0.30452940680E+02  0.60272951839E+03  0.60545457169E+03  0.00000000000E+00 0.  1.
</event>
<event>
12   0  0.1544783E-01  0.2418775E+03  0.7957747E-01  0.1125795E+00
        2   -1    0    0  502    0  0.00000000000E+00  0.00000000000E+00  0.47162095465E+03  0.47162095465E+03  0.00000000000E+00 0.  1.
       -2   -1    0    0    0  501  0.00000000000E+00  0.00000000000E+00 -0.29989868416E+03  0.29989868416E+03  0.00000000000E+00 0. -1.
        6    2    1    2  502    0  0.16027633383E+03  0.54595878119E+02 -0.20947304707E+03  0.32027080514E+03  0.17327786381E+03 0.  0.
       24    2    3    3    0    0  0.46306613109E+02  0.75501007444E+02 -0.68082090371E+02  0.13740578851E+03  0.80002969599E+02 0.  0.
       -6    2    1    2    0  501 -0.16027633383E+03 -0.54595878119E+02  0.38119531756E+03  0.45124883367E+03  0.17218137724E+03 0.  0.
      -24    2    5    5    0    0 -0.56183469004E+02  0.13715307484E+02  0.89336113905E+02  0.13390733411E+03  0.81274479589E+02 0.  0.
        5    1    3    3  502    0  0.11396972072E+03 -0.20905129324E+02 -0.14139095669E+03  0.18286501663E+03  0.47000000000E+01 0. -1.
        2    1    4    4  503    0  0.68607077406E+02  0.65664414180E+02 -0.54976608583E+02  0.10973228263E+03  0.00000000000E+00 0. -1.
       -1    1    4    4    0  503 -0.22300464298E+02  0.98365932636E+01 -0.13105481789E+02  0.27673505883E+02  0.00000000000E+00 0.  1.
       -5    1    5    5    0  501 -0.10409286482E+03 -0.68311185603E+02  0.29185920365E+03  0.31734149956E+03  0.47000000000E+01 0.  1.
       11    1    6    6    0    0  0.20808254657E+02 -0.16086538221E+01  0.14202027492E+02  0.25244183764E+02  0.00000000000E+00 0. -1.
      -12    1    6    6    0    0 -0.76991723661E+02  0.15323961306E+02  0.75134086412E+02  0.10866315035E+03  0.00000000000E+00 0.  1.
</event>
<event>
12   0  0.1544783E-01  0.1872415E+03  0.7957747E-01  0.1166833E+00
        2   -1    0    0  502    0  0.00000000000E+00  0.00000000000E+00  0.48907581793E+03  0.48907581793E+03  0.00000000000E+00 0. -1.
       -2   -1    0    0    0  501  0.00000000000E+00  0.00000000000E+00 -0.78491439555E+02  0.78491439555E+02  0.00000000000E+00 0.  1.
        6    2    1    2  502    0  0.68695609999E+02 -0.78065141573E+01  0.28954879395E+03  0.34519421179E+03  0.17475843693E+03 0.  0.
       24    2    3    3    0    0  0.27968039048E+02  0.43634766582E+02  0.25134074715E+03  0.26912263208E+03  0.81046997817E+02 0.  0.
       -6    2    1    2    0  501 -0.68695609999E+02  0.78065141573E+01  0.12103558443E+03  0.22237304570E+03  0.17326318206E+03 0.  0.
      -24    2    5    5    0    0  0.20498978994E+00  0.60332239088E+02  0.74527720677E+02  0.12392856479E+03  0.78510425597E+02 0.  0.
        5    1    3    3  502    0  0.40727570950E+02 -0.51441280739E+02  0.38208046801E+02  0.76071579712E+02  0.47000000000E+01 0. -1.
      -11    1    4    4    0    0 -0.98100393366E+01  0.34099130040E+02  0.36979350330E+02  0.51248998938E+02  0.00000000000E+00 0.  1.
       12    1    4    4    0    0  0.37778078385E+02  0.95356365416E+01  0.21436139682E+03  0.21787363314E+03  0.00000000000E+00 0. -1.
       -5    1    5    5    0  501 -0.68900599789E+02 -0.52525724931E+02  0.46507863749E+02  0.98444480908E+02  0.47000000000E+01 0.  1.
        3    1    6    6  503    0 -0.35022800031E+02  0.22339587179E+02  0.13077338440E+02  0.43550780223E+02  0.00000000000E+00 0. -1.
       -4    1    6    6    0  503  0.35227789821E+02  0.37992651909E+02  0.61450382237E+02  0.80377784567E+02  0.00000000000E+00 0.  1.
</event>
<event>
12   0  0.1544783E-01  0.1873770E+03  0.7957747E-01  0.1166713E+00
        1   -1    0    0  502    0  0.00000000000E+00  0.00000000000E+00  0.20439719367E+03  0.20439719367E+03  0.00000000000E+00 0.  1.
       -1   -1    0    0    0  501  0.00000000000E+00  0.00000000000E+00 -0.18826653082E+03  0.18826653082E+03  0.00000000000E+00 0. -1.
        6    2    1    2  502    0 -0.70768585199E+01  0.71602242207E+02  0.66163045304E+02  0.19845258432E+03  0.17271049952E+03 0.  0.
       24    2    3    3    0    0  0.72522488557E+01  0.99538532900E+02  0.33629109335E+01  0.12808422117E+03  0.80210622094E+02 0.  0.
       -6    2    1    2    0  501  0.70768585199E+01 -0.71602242207E+02 -0.50032382453E+02  0.19421114017E+03  0.17331406365E+03 0.  0.
      -24    2    5    5    0    0 -0.13816874769E+02 -0.17942830431E+02 -0.91112138658E+02  0.12332025971E+03  0.79960074114E+02 0.  0.
        5    1    3    3  502    0 -0.14329107376E+02 -0.27936290694E+02  0.62800134371E+02  0.70368363153E+02  0.47000000000E+01 0. -1.
        4    1    4    4  503    0  0.31679745900E+02  0.84296832708E+02 -0.18497571282E+02  0.91933249960E+02  0.00000000000E+00 0. -1.
       -3    1    4    4    0  503 -0.24427497044E+02  0.15241700192E+02  0.21860482215E+02  0.36150971208E+02  0.00000000000E+00 0.  1.
       -5    1    5    5    0  501  0.20893733289E+02 -0.53659411776E+02  0.41079756205E+02  0.70890880462E+02  0.47000000000E+01 0.  1.
       11    1    6    6    0    0  0.32826302023E+02 -0.78379484821E+01 -0.50027494451E+02  0.60346911619E+02  0.00000000000E+00 0. -1.
      -12    1    6    6    0    0 -0.46643176792E+02 -0.10104881949E+02 -0.41084644207E+02  0.62973348093E+02  0.00000000000E+00 0.  1.
</event>
<event>
12   0  0.1544783E-01  0.2106925E+03  0.7957747E-01  0.1147554E+00
       -2   -1    0    0    0  501  0.00000000000E+00  0.00000000000E+00  0.92356066158E+02  0.92356066158E+02  0.00000000000E+00 0.  1.
        2   -1    0    0  502    0  0.00000000000E+00  0.00000000000E+00 -0.50675027714E+03  0.50675027714E+03  0.00000000000E+00 0. -1.
        6    2    1    2  502    0  0.12110817863E+03 -0.17551718792E+02 -0.27427494866E+03  0.34528182364E+03  0.17034534484E+03 0.  0.
       24    2    3    3    0    0  0.10558791780E+03 -0.38524234942E+02 -0.10828299131E+03  0.17718618171E+03  0.83885706285E+02 0.  0.
       -6    2    1    2    0  501 -0.12110817863E+03  0.17551718792E+02 -0.14011926233E+03  0.25382451967E+03  0.17267954524E+03 0.  0.
      -24    2    5    5    0    0 -0.67217723105E+02 -0.23720723638E+02 -0.17448324034E+02  0.11354677801E+03  0.86646014083E+02 0.  0.
        5    1    3    3  502    0  0.15520260833E+02  0.20972516150E+02 -0.16599195735E+03  0.16809564193E+03  0.47000000000E+01 0. -1.
      -13    1    4    4    0    0  0.36729532082E+02 -0.50376764001E+02 -0.80912433163E+02  0.10214547821E+03  0.00000000000E+00 0.  1.
       14    1    4    4    0    0  0.68858385718E+02  0.11852529059E+02 -0.27370558148E+02  0.75040703502E+02  0.00000000000E+00 0. -1.
       -5    1    5    5    0  501 -0.53890455529E+02  0.41272442429E+02 -0.12267093829E+03  0.14027774165E+03  0.47000000000E+01 0.  1.
        1    1    6    6  503    0  0.99719772850E+01 -0.32279937706E+02  0.69729500165E+00  0.33792320572E+02  0.00000000000E+00 0. -1.
       -2    1    6    6    0  503 -0.77189700390E+02  0.85592140687E+01 -0.18145619035E+02  0.79754457442E+02  0.00000000000E+00 0.  1.
</event>
<event>
12   0  0.1544783E-01  0.2456229E+03  0.7957747E-01  0.1123424E+00
       21   -1    0    0  504  503  0.00000000000E+00  0.00000000000E+00  0.23531628584E+03  0.23531628584E+03  0.00000000000E+00 0.  1.
       21   -1    0    0  501  504  0.00000000000E+00  0.00000000000E+00 -0.25653593860E+03  0.25653593860E+03  0.00000000000E+00 0.  1.
        6    2    1    2  501    0 -0.16980831091E+03  0.37022695203E+02  0.73455521756E+01  0.24573271043E+03  0.17356573806E+03 0.  0.
       24    2    3    3    0    0 -0.39234476572E+02  0.65442360272E+02  0.22633526061E+02  0.11114810611E+03  0.77585941509E+02 0.  0.
       -6    2    1    2    0  503  0.16980831091E+03 -0.37022695203E+02 -0.28565204936E+02  0.24611951401E+03  0.17191073797E+03 0.  0.
      -24    2    5    5    0    0  0.25992616606E+02 -0.36697888295E+02 -0.43379125326E+02  0.10146612945E+03  0.79945455082E+02 0.  0.
        5    1    3    3  501    0 -0.13057383433E+03 -0.28419665069E+02 -0.15287973886E+02  0.13458460432E+03  0.47000000000E+01 0. -1.
      -13    1    4    4    0    0 -0.52194497152E+02  0.36101416832E+02  0.39657006438E+02  0.74834858120E+02  0.00000000000E+00 0.  1.
       14    1    4    4    0    0  0.12960020580E+02  0.29340943440E+02 -0.17023480376E+02  0.36313247989E+02  0.00000000000E+00 0. -1.
       -5    1    5    5    0  503  0.14381569430E+03 -0.32480690820E+00  0.14813920390E+02  0.14465338456E+03  0.47000000000E+01 0.  1.
        3    1    6    6  502    0  0.10607071806E+01 -0.39116167786E+02  0.11797138554E+02  0.40870186690E+02  0.00000000000E+00 0. -1.
       -4    1    6    6    0  502  0.24931909425E+02  0.24182794906E+01 -0.55176263880E+02  0.60595942761E+02  0.00000000000E+00 0.  1.
</event>
<event>
12   0  0.1544783E-01  0.1967178E+03  0.7957747E-01  0.1158689E+00
       21   -1    0    0  501  503  0.00000000000E+00  0.00000000000E+00  0.61834186521E+02  0.61834186521E+02  0.00000000000E+00 0.  1.
       21   -1    0    0  503  504  0.00000000000E+00  0.00000000000E+00 -0.82775549395E+03  0.82775549395E+03  0.00000000000E+00 0.  1.
        6    2    1    2  501    0 -0.79940530446E+02  0.42660332757E+02 -0.15814134812E+03  0.25076702132E+03  0.17223536395E+03 0.  0.
       24    2    3    3    0    0 -0.97496192786E+01  0.48848976954E+02 -0.23422778894E+02  0.98660985204E+02  0.81878481940E+02 0.  0.
       -6    2    1    2    0  504  0.79940530446E+02 -0.42660332757E+02 -0.60777995931E+03  0.63882265916E+03  0.17460675392E+03 0.  0.
      -24    2    5    5    0    0 -0.16968843580E+02  0.80197745410E+01 -0.33958663191E+03  0.34915103315E+03  0.78962680701E+02 0.  0.
        5    1    3    3  501    0 -0.70190911167E+02 -0.61886441968E+01 -0.13471856923E+03  0.15210603611E+03  0.47000000000E+01 0. -1.
        2    1    4    4  502    0 -0.28617915209E+02 -0.89059295764E+01  0.69002237189E+01  0.30755710688E+02  0.00000000000E+00 0. -1.
       -1    1    4    4    0  502  0.18868295931E+02  0.57754906530E+02 -0.30323002613E+02  0.67905274516E+02  0.00000000000E+00 0.  1.
       -5    1    5    5    0  504  0.96909374026E+02 -0.50680107298E+02 -0.26819332740E+03  0.28967162600E+03  0.47000000000E+01 0.  1.
       11    1    6    6    0    0 -0.56735338873E+01  0.41760703267E+02 -0.13284265258E+03  0.13936755601E+03  0.00000000000E+00 0. -1.
      -12    1    6    6    0    0 -0.11295309693E+02 -0.33740928726E+02 -0.20674397933E+03  0.20978347714E+03  0.00000000000E+00 0.  1.
</event>
<event>
12   0  0.1544783E-01  0.3612844E+03  0.7957747E-01  0.1066986E+00
       21   -1    0    0  504  503  0.00000000000E+00  0.00000000000E+00  0.26024760298E+03  0.26024760298E+03  0.00000000000E+00 0. -1.
       21   -1    0    0  501  504  0.00000000000E+00  0.00000000000E+00 -0.56243326970E+03  0.56243326970E+03  0.00000000000E+00 0.  1.
        6    2    1    2  501    0 -0.22892318171E+03  0.21860833721E+03 -0.14382826452E+02  0.36077517475E+03  0.17250052985E+03 0.  0.
       24    2    3    3    0    0 -0.15649730949E+03  0.73367097233E+02  0.29431919798E+02  0.19260161337E+03  0.79718283584E+02 0.  0.
       -6    2    1    2    0  503  0.22892318171E+03 -0.21860833721E+03 -0.28780284027E+03  0.46190569793E+03  0.17415789013E+03 0.  0.
      -24    2    5    5    0    0  0.13210132657E+03 -0.19220620338E+03 -0.14192974835E+03  0.28478259598E+03  0.81012890336E+02 0.  0.
        5    1    3    3  501    0 -0.72425872216E+02  0.14524123998E+03 -0.43814746250E+02  0.16817356138E+03  0.47000000000E+01 0. -1.
        2    1    4    4  502    0 -0.11892028432E+03  0.62447652186E+02  0.55764392489E+02  0.14543524592E+03  0.00000000000E+00 0. -1.
       -1    1    4    4    0  502 -0.37577025170E+02  0.10919445047E+02 -0.26332472692E+02  0.47166367455E+02  0.00000000000E+00 0.  1.
       -5    1    5    5    0  503  0.96821855131E+02 -0.26402133828E+02 -0.14587309192E+03  0.17712310196E+03  0.47000000000E+01 0.  1.
       11    1    6    6    0    0  0.63693940317E+02 -0.43602403229E+02 -0.17245947523E+02  0.79091784064E+02  0.00000000000E+00 0. -1.
      -12    1    6    6    0    0  0.68407386258E+02 -0.14860380016E+03 -0.12468380083E+03  0.20569081191E+03  0.00000000000E+00 0.  1.
</event>
<event>
12   0  0.1544783E-01  0.1738573E+03  0.7957747E-01  0.1179286E+00
        2   -1    0    0  502    0  0.00000000000E+00  0.00000000000E+00  0.45895204282E+03  0.45895204282E+03  0.00000000000E+00 0.  1.
       -2   -1    0    0    0  501  0.00000000000E+00  0.00000000000E+00 -0.68563868549E+02  0.68563868549E+02  0.00000000000E+00 0. -1.
        6    2    1    2  502    0 -0.11883469861E+02 -0.10192808916E+02  0.14312754840E+03  0.22541851011E+03  0.17344422556E+03 0.  0.
       24    2    3    3    0    0 -0.52528870029E+02  0.35374031736E+02  0.12484944372E+03  0.16150791137E+03  0.80540781768E+02 0.  0.
       -6    2    1    2    0  501  0.11883469861E+02  0.10192808916E+02  0.24726062586E+03  0.30209740125E+03  0.17285807048E+03 0.  0.
      -24    2    5    5    0    0  0.43775556070E+01 -0.61818724216E+02  0.14951688143E+03  0.18036848427E+03  0.79603860641E+02 0.  0.
        5    1    3    3  502    0  0.40645400168E+02 -0.45566840652E+02  0.18278104679E+02  0.63910598749E+02  0.47000000000E+01 0. -1.
      -13    1    4    4    0    0 -0.48720589260E+02  0.28920597558E+02  0.13642293905E+03  0.14772039494E+03  0.00000000000E+00 0.  1.
       14    1    4    4    0    0 -0.38082807690E+01  0.64534341777E+01 -0.11573495329E+02  0.13787516427E+02  0.00000000000E+00 0. -1.
       -5    1    5    5    0  501  0.75059142543E+01  0.72011533132E+02  0.97743744430E+02  0.12172891698E+03  0.47000000000E+01 0.  1.
        1    1    6    6  503    0 -0.27012735868E+02 -0.32539856727E+02  0.26092304095E+02  0.49692439142E+02  0.00000000000E+00 0. -1.
       -2    1    6    6    0  503  0.31390291475E+02 -0.29278867490E+02  0.12342457734E+03  0.13067604513E+03  0.00000000000E+00 0.  1.
</event>
<event>
12   0  0.1544783E-01  0.3797799E+03  0.7957747E-01  0.1060096E+00
       21   -1    0    0  501  503  0.00000000000E+00  0.00000000000E+00  0.85726114259E+03  0.85726114259E+03  0.00000000000E+00 0. -1.
       21   -1    0    0  503  504  0.00000000000E+00  0.00000000000E+00 -0.17293351792E+03  0.17293351792E+03  0.00000000000E+00 0.  1.
        6    2    1    2  501    0  0.27933563868E+03 -0.19016258458E+03  0.25392047308E+03  0.45618851858E+03  0.17158715054E+03 0.  0.
       24    2    3    3    0    0  0.21905288503E+03 -0.20869210311E+03  0.19003567804E+03  0.36629574646E+03  0.80761714959E+02 0.  0.
       -6    2    1    2    0  504 -0.27933563868E+03  0.19016258458E+03  0.43040715159E+03  0.57400614193E+03  0.17332780279E+03 0.  0.
      -24    2    5    5    0    0 -0.17298536266E+03  0.42755862633E+02  0.20225480840E+03  0.28226189676E+03  0.83742291330E+02 0.  0.
        5    1    3    3  501    0  0.60282753646E+02  0.18529518526E+02  0.63884795033E+02  0.89892772125E+02  0.47000000000E+01 0. -1.
        4    1    4    4  502    0  0.18716160377E+03 -0.20503738074E+03  0.18547737164E+03  0.33387370190E+03  0.00000000000E+00 0. -1.
       -3    1    4    4    0  502  0.31891281266E+02 -0.36547223681E+01  0.45583063985E+01  0.32422044563E+02  0.00000000000E+00 0.  1.
       -5    1    5    5    0  504 -0.10635027602E+03  0.14740672195E+03  0.22815234319E+03  0.29174424517E+03  0.47000000000E+01 0.  1.
       11    1    6    6    0    0 -0.41512234423E+02  0.36120546030E+02  0.10516167470E+03  0.11868840414E+03  0.00000000000E+00 0. -1.
      -12    1    6    6    0    0 -0.13147312824E+03  0.66353166031E+01  0.97093133701E+02  0.16357349262E+03  0.00000000000E+00 0.  1.
</event>
<event>
12   0  0.1544783E-01  0.2447021E+03  0.7957747E-01  0.1124003E+00
       21   -1    0    0  501  503  0.00000000000E+00  0.00000000000E+00  0.30337914404E+03  0.30337914404E+03  0.00000000000E+00 0. -1.
       21   -1    0    0  503  504  0.00000000000E+00  0.00000000000E+00 -0.19778349408E+03  0.19778349408E+03  0.00000000000E+00 0.  1.
        6    2    1    2  501    0  0.16966862338E+03  0.32955171836E+02  0.39498370711E+02  0.24786935036E+03  0.17322127019E+03 0.  0.
       24    2    3    3    0    0  0.14858304055E+03 -0.12348714793E+02 -0.20108365082E+02  0.16994568964E+03  0.79042902187E+02 0.  0.
       -6    2    1    2    0  504 -0.16966862338E+03 -0.32955171836E+02  0.66097279241E+02  0.25329328776E+03  0.17295997859E+03 0.  0.
      -24    2    5    5    0    0 -0.16251605295E+03  0.21760086515E+02  0.74426822542E+02  0.19728980527E+03  0.80616043790E+02 0.  0.
        5    1    3    3  501    0  0.21085582832E+02  0.45303886629E+02  0.59606735793E+02  0.77923660713E+02  0.47000000000E+01 0. -1.
      -11    1    4    4    0    0  0.14332103432E+02  0.14918310025E+02 -0.25514038285E+02  0.32847089862E+02  0.00000000000E+00 0.  1.
       12    1    4    4    0    0  0.13425093712E+03 -0.27267024818E+02  0.54056732025E+01  0.13709859978E+03  0.00000000000E+00 0. -1.
       -5    1    5    5    0  504 -0.71525704280E+01 -0.54715258351E+02 -0.83295433007E+01  0.56003482496E+02  0.47000000000E+01 0.  1.
        1    1    6    6  502    0 -0.12183622050E+03 -0.19833732890E+02  0.60487603425E+02  0.13746341970E+03  0.00000000000E+00 0. -1.
       -2    1    6    6    0  502 -0.40679832451E+02  0.41593819405E+02  0.13939219117E+02  0.59826385571E+02  0.00000000000E+00 0.  1.
</event>
<event>
12   0  0.1544783E-01  0.1960666E+03  0.7957747E-01  0.1159232E+00
       21   -1    0    0  504  503  0.00000000000E+00  0.00000000000E+00  0.65214097440E+03  0.65214097440E+03  0.00000000000E+00 0. -1.
       21   -1    0    0  501  504  0.00000000000E+00  0.00000000000E+00 -0.93923196778E+02  0.93923196778E+02  0.00000000000E+00 0. -1.
        6    2    1    2  501    0  0.62916995299E+02  0.68430516379E+02  0.50635959610E+02  0.20193054273E+03  0.17196121601E+03 0.  0.
       24    2    3    3    0    0  0.32819216924E+02  0.13281818442E+02  0.90672960155E+02  0.12728265891E+03  0.82010864244E+02 0.  0.
       -6    2    1    2    0  503 -0.62916995299E+02 -0.68430516379E+02  0.50758181802E+03  0.54413362845E+03  0.17262913937E+03 0.  0.
      -24    2    5    5    0    0 -0.15067013462E+02 -0.45414984216E+02  0.11973772810E+03  0.15264357294E+03  0.81690887758E+02 0.  0.
        5    1    3    3  501    0  0.30097778375E+02  0.55148697937E+02 -0.40037000544E+02  0.74647883827E+02  0.47000000000E+01 0. -1.
        4    1    4    4  502    0  0.26363221624E+00  0.42632565916E+02  0.28772207492E+02  0.51433890602E+02  0.00000000000E+00 0. -1.
       -3    1    4    4    0  502  0.32555584708E+02 -0.29350747473E+02  0.61900752663E+02  0.75848768303E+02  0.00000000000E+00 0.  1.
       -5    1    5    5    0  503 -0.47849981837E+02 -0.23015532163E+02  0.38784408991E+03  0.39149005551E+03  0.47000000000E+01 0.  1.
       13    1    6    6    0    0 -0.15549530709E+02 -0.38432750172E+02  0.13209146714E+03  0.13844500670E+03  0.00000000000E+00 0. -1.
      -14    1    6    6    0    0  0.48251724682E+00 -0.69822340442E+01 -0.12353739032E+02  0.14198566238E+02  0.00000000000E+00 0.  1.
</event>
<event>
12   0  0.1544783E-01  0.1885951E+03  0.7957747E-01  0.1165638E+00
       21   -1    0    0  501  503  0.00000000000E+00  0.00000000000E+00  0.55788063830E+03  0.55788063830E+03  0.00000000000E+00 0.  1.
       21   -1    0    0  503  504  0.00000000000E+00  0.00000000000E+00 -0.63928378631E+02  0.63928378631E+02  0.00000000000E+00 0. -1.
        6    2    1    2  501    0  0.43456565692E+02  0.60680339466E+02  0.26941595504E+03  0.32857761441E+03  0.17264910993E+03 0.  0.
       24    2    3    3    0    0  0.32309647756E+02  0.17933959184E+02  0.26983489765E+03  0.28415045696E+03  0.81025119380E+02 0.  0.
       -6    2    1    2    0  504 -0.43456565692E+02 -0.60680339466E+02  0.22453630462E+03  0.29323140252E+03  0.17319794060E+03 0.  0.
      -24    2    5    5    0    0 -0.22184311029E+02  0.33004547063E+02  0.13407756172E+03  0.16119261674E+03  0.80154995798E+02 0.  0.
        5    1    3    3  501    0  0.11146917937E+02  0.42746380282E+02 -0.41894260086E+00  0.44427157456E+02  0.47000000000E+01 0. -1.
        2    1    4    4  502    0  0.32126777047E+02  0.44596478647E+02  0.22807565848E+03  0.23460494817E+03  0.00000000000E+00 0. -1.
       -1    1    4    4    0  502  0.18287070889E+00 -0.26662519464E+02  0.41759239162E+02  0.49545508789E+02  0.00000000000E+00 0.  1.
       -5    1    5    5    0  504 -0.21272254664E+02 -0.93684886529E+02  0.90458742897E+02  0.13203878578E+03  0.47000000000E+01 0.  1.
       11    1    6    6    0    0 -0.32158061891E+02  0.31520473817E+02  0.24715546080E+02  0.51366715218E+02  0.00000000000E+00 0. -1.
      -12    1    6    6    0    0  0.99737508621E+01  0.14840732456E+01  0.10936201564E+03  0.10982590152E+03  0.00000000000E+00 0.  1.
</event>
<event>
12   0  0.1544783E-01  0.2642655E+03  0.7957747E-01  0.1112270E+00
       21   -1    0    0  504  503  0.00000000000E+00  0.00000000000E+00  0.18040686069E+03  0.18040686069E+03  0.00000000000E+00 0.  1.
       21   -1    0    0  501  504  0.00000000000E+00  0.00000000000E+00 -0.39311437809E+03  0.39311437809E+03  0.00000000000E+00 0. -1.
        6    2    1    2  501    0 -0.15953591528E+03  0.11851597943E+03 -0.14433710924E+03  0.30111370693E+03  0.17417955608E+03 0.  0.
       24    2    3    3    0    0 -0.55937208417E+02  0.71733243171E+02 -0.14139528629E+03  0.18730658590E+03  0.82562101935E+02 0.  0.
       -6    2    1    2    0  503  0.15953591528E+03 -0.11851597943E+03 -0.68370408158E+02  0.27240753185E+03  0.17330206303E+03 0.  0.
      -24    2    5    5    0    0  0.13745517995E+03 -0.17238490328E+02 -0.18562954067E+02  0.15730948167E+03  0.72184470054E+02 0.  0.
        5    1    3    3  501    0 -0.10359870686E+03  0.46782736255E+02 -0.29418229482E+01  0.11380712103E+03  0.47000000000E+01 0. -1.
        2    1    4    4  502    0 -0.31369725415E+02  0.71060724358E+02 -0.14293904989E+03  0.16268146238E+03  0.00000000000E+00 0. -1.
       -1    1    4    4    0  502 -0.24567483002E+02  0.67251881337E+00  0.15437635953E+01  0.24625123525E+02  0.00000000000E+00 0.  1.
       -5    1    5    5    0  503  0.22080735330E+02 -0.10127748910E+03 -0.49807454090E+02  0.11509805017E+03  0.47000000000E+01 0.  1.
       11    1    6    6    0    0  0.46988698884E+02 -0.12075438036E+02 -0.41493568130E+02  0.63839409636E+02  0.00000000000E+00 0. -1.
      -12    1    6    6    0    0  0.90466481065E+02 -0.51630522919E+01  0.22930614063E+02  0.93470072036E+02  0.00000000000E+00 0.  1.
</event>
<event>
12   0  0.1544783E-01  0.2051852E+03  0.7957747E-01  0.1151826E+00
       21   -1    0    0  501  503  0.00000000000E+00  0.00000000000E+00  0.15271060035E+03  0.15271060035E+03  0.00000000000E+00 0. -1.
       21   -1    0    0  503  504  0.00000000000E+00  0.00000000000E+00 -0.36600165327E+03  0.36600165327E+03  0.00000000000E+00 0. -1.
        6    2    1    2  501    0 -0.12467450364E+02  0.10882746301E+03  0.22466269180E+02  0.20641150431E+03  0.17349963066E+03 0.  0.
       24    2    3    3    0    0  0.15068250546E+02  0.10063896784E+03  0.72628405413E+02  0.14841498554E+03  0.79980426603E+02 0.  0.
       -6    2    1    2    0  504  0.12467450364E+02 -0.10882746301E+03 -0.23575732210E+03  0.31230074931E+03  0.17306469620E+03 0.  0.
      -24    2    5    5    0    0 -0.39977157756E+02 -0.11846370664E+03 -0.19597656352E+03  0.24560822450E+03  0.79276500690E+02 0.  0.
        5    1    3    3  501    0 -0.27535700909E+02  0.81884951748E+01 -0.50162136233E+02  0.57996518769E+02  0.47000000000E+01 0. -1.
        2    1    4    4  502    0  0.39938484361E+01  0.58403215710E+02  0.84839771075E+02  0.10307605535E+03  0.00000000000E+00 0. -1.
       -1    1    4    4    0  502  0.11074402109E+02  0.42235752126E+02 -0.12211365662E+02  0.45338930193E+02  0.00000000000E+00 0.  1.
       -5    1    5    5    0  504  0.52444608119E+02  0.96362436293E+01 -0.39780758583E+02  0.66692524810E+02  0.47000000000E+01 0.  1.
       13    1    6    6    0    0 -0.33939136357E+02 -0.10104178101E+03 -0.94432450739E+02  0.14240363141E+03  0.00000000000E+00 0. -1.
      -14    1    6    6    0    0 -0.60380213981E+01 -0.17421925630E+02 -0.10154411278E+03  0.10320459309E+03  0.00000000000E+00 0.  1.
</event>
<event>
12   0  0.1544783E-01  0.1933296E+03  0.7957747E-01  0.1161542E+00
       21   -1    0    0  504  503  0.00000000000E+00  0.00000000000E+00  0.39483366001E+03  0.39483366001E+03  0.00000000000E+00 0. -1.
       21   -1    0    0  501  504  0.00000000000E+00  0.00000000000E+00 -0.12308162766E+03  0.12308162766E+03  0.00000000000E+00 0. -1.
        6    2    1    2  501    0  0.75012468489E+02  0.41080846961E+02  0.10664151022E+02  0.19362347099E+03  0.17338344208E+03 0.  0.
       24    2    3    3    0    0  0.30599192347E+02  0.80930904323E+02  0.42499133492E+02  0.12582876413E+03  0.80873850460E+02 0.  0.
       -6    2    1    2    0  503 -0.75012468489E+02 -0.41080846961E+02  0.26108788134E+03  0.32429181668E+03  0.17228985509E+03 0.  0.
      -24    2    5    5    0    0 -0.10411166590E+03 -0.24138635324E+02  0.25747270196E+03  0.29010173994E+03  0.80280225281E+02 0.  0.
        5    1    3    3  501    0  0.44413276142E+02 -0.39850057362E+02 -0.31834982470E+02  0.67794706860E+02  0.47000000000E+01 0. -1.
        2    1    4    4  502    0  0.27929513075E+02  0.89760441218E+01  0.45072092652E+02  0.53778439962E+02  0.00000000000E+00 0. -1.
       -1    1    4    4    0  502  0.26696792716E+01  0.71954860201E+02 -0.25729591602E+01  0.72050324169E+02  0.00000000000E+00 0.  1.
       -5    1    5    5    0  503  0.29099197415E+02 -0.16942211637E+02  0.36151793796E+01  0.34190076737E+02  0.47000000000E+01 0.  1.
       11    1    6    6    0    0 -0.30479318321E+02 -0.24025645965E+02  0.17624481470E+03  0.18046732452E+03  0.00000000000E+00 0. -1.
      -12    1    6    6    0    0 -0.73632347582E+02 -0.11298935834E+00  0.81227887254E+02  0.10963441542E+03  0.00000000000E+00 0.  1.
</event>
<event>
12   0  0.1544783E-01  0.1824116E+03  0.7957747E-01  0.1171191E+00
        3   -1    0    0  502    0  0.00000000000E+00  0.00000000000E+00  0.31411914404E+03  0.31411914404E+03  0.00000000000E+00 0. -1.
       -3   -1    0    0    0  501  0.00000000000E+00  0.00000000000E+00 -0.17897320550E+03  0.17897320550E+03  0.00000000000E+00 0.  1.
        6    2    1    2  502    0 -0.43527374086E+02  0.36145721869E+02 -0.89876288701E+02  0.20358694937E+03  0.17369154608E+03 0.  0.
       24    2    3    3    0    0  0.32729978201E+02 -0.85396335364E+01 -0.62720728997E+02  0.11100466603E+03  0.85111510511E+02 0.  0.
       -6    2    1    2    0  501  0.43527374086E+02 -0.36145721869E+02  0.22502222724E+03  0.28950540017E+03  0.17313933253E+03 0.  0.
      -24    2    5    5    0    0 -0.30245271528E+02 -0.14997770874E+02  0.17768720066E+03  0.19921512487E+03  0.83511766341E+02 0.  0.
        5    1    3    3  502    0 -0.76257352287E+02  0.44685355405E+02 -0.27155559704E+02  0.92582283339E+02  0.47000000000E+01 0. -1.
      -13    1    4    4    0    0 -0.74935004822E+01 -0.30347841492E+02 -0.56846244486E+02  0.64874028277E+02  0.00000000000E+00 0.  1.
       14    1    4    4    0    0  0.40223478683E+02  0.21808207956E+02 -0.58744845109E+01  0.46130637757E+02  0.00000000000E+00 0. -1.
       -5    1    5    5    0  501  0.73772645614E+02 -0.21147950994E+02  0.47335026583E+02  0.90290275300E+02  0.47000000000E+01 0.  1.
        3    1    6    6  503    0 -0.84271072504E+01  0.29662322757E+02  0.28588355601E+02  0.42049537499E+02  0.00000000000E+00 0. -1.
       -4    1    6    6    0  503 -0.21818164278E+02 -0.44660093631E+02  0.14909884506E+03  0.15716558737E+03  0.00000000000E+00 0.  1.
</event>
<event>
12   0  0.1544783E-01  0.2085295E+03  0.7957747E-01  0.1149215E+00
       21   -1    0    0  504  503  0.00000000000E+00  0.00000000000E+00  0.26438127224E+03  0.26438127224E+03  0.00000000000E+00 0. -1.
       21   -1    0    0  501  504  0.00000000000E+00  0.00000000000E+00 -0.16521069638E+03  0.16521069638E+03  0.00000000000E+00 0. -1.
        6    2    1    2  501    0 -0.10585190732E+03 -0.43737637863E+02  0.70671638455E+02  0.21912403092E+03  0.17292557127E+03 0.  0.
       24    2    3    3    0    0 -0.21185895814E+02  0.31524211058E+02  0.89728954227E+01  0.90044581363E+02  0.81147370360E+02 0.  0.
       -6    2    1    2    0  503  0.10585190732E+03  0.43737637863E+02  0.28498937407E+02  0.21046793769E+03  0.17426117214E+03 0.  0.
      -24    2    5    5    0    0  0.14934633017E+02 -0.32281988042E+02 -0.10750232225E+02  0.85537870834E+02  0.77045375193E+02 0.  0.
        5    1    3    3  501    0 -0.84666011505E+02 -0.75261848921E+02  0.61698743033E+02  0.12907944956E+03  0.47000000000E+01 0. -1.
      -13    1    4    4    0    0 -0.19666914211E+02 -0.25306184903E+02  0.86358223297E+01  0.33192889845E+02  0.00000000000E+00 0.  1.
       14    1    4    4    0    0 -0.15189816036E+01  0.56830395961E+02  0.33707309298E+00  0.56851691518E+02  0.00000000000E+00 0. -1.
       -5    1    5    5    0  503  0.90917274302E+02  0.76019625904E+02  0.39249169632E+02  0.12493006686E+03  0.47000000000E+01 0.  1.
        3    1    6    6  502    0  0.39611143424E+02 -0.35294311407E+02  0.89691419773E+01  0.53806845372E+02  0.00000000000E+00 0. -1.
       -4    1    6    6    0  502 -0.24676510407E+02  0.30123233649E+01 -0.19719374202E+02  0.31731025462E+02  0.00000000000E+00 0.  1.
</event>
<event>
12   0  0.1544783E-01  0.1917257E+03  0.7957747E-01  0.1162915E+00
       21   -1    0    0  501  503  0.00000000000E+00  0.00000000000E+00  0.21618532157E+03  0.21618532157E+03  0.00000000000E+00 0.  1.
       21   -1    0    0  503  504  0.00000000000E+00  0.00000000000E+00 -0.19059050841E+03  0.19059050841E+03  0.00000000000E+00 0.  1.
        6    2    1    2  501    0 -0.10308548113E+02 -0.83185238454E+02  0.80080161361E+02  0.20777773179E+03  0.17243173584E+03 0.  0.
       24    2    3    3    0    0 -0.38969628655E+02  0.56453993031E+01  0.10972752760E+02  0.91544072011E+02  0.81911008578E+02 0.  0.
       -6    2    1    2    0  504  0.10308548113E+02  0.83185238454E+02 -0.54485348206E+02  0.19899809819E+03  0.17206260446E+03 0.  0.
      -24    2    5    5    0    0 -0.19554887804E+02  0.36358751960E+02 -0.94311577735E+02  0.13049435230E+03  0.80185720711E+02 0.  0.
        5    1    3    3  501    0  0.28661080542E+02 -0.88830637757E+02  0.69107408600E+02  0.11623365978E+03  0.47000000000E+01 0. -1.
        4    1    4    4  502    0  0.25186257518E+02  0.87178478686E+01  0.35146505992E+01  0.26883102649E+02  0.00000000000E+00 0. -1.
       -3    1    4    4    0  502 -0.64155886173E+02 -0.30724485655E+01  0.74581021612E+01  0.64660969361E+02  0.00000000000E+00 0.  1.
       -5    1    5    5    0  504  0.29863435918E+02  0.46826486495E+02  0.39826229529E+02  0.68503745888E+02  0.47000000000E+01 0.  1.
       11    1    6    6    0    0 -0.47326358531E+01 -0.25611486303E+02 -0.21796340759E+02  0.33962133962E+02  0.00000000000E+00 0. -1.
      -12    1    6    6    0    0 -0.14822251951E+02  0.61970238263E+02 -0.72515236977E+02  0.96532218337E+02  0.00000000000E+00 0.  1.
</event>
<event>
12   0  0.1544783E-01  0.3543714E+03  0.7957747E-01  0.1069677E+00
       21   -1    0    0  504  503  0.00000000000E+00  0.00000000000E+00  0.76065911810E+02  0.76065911810E+02  0.00000000000E+00 0.  1.
       21   -1    0    0  501  504  0.00000000000E+00  0.00000000000E+00 -0.16503290024E+04  0.16503290024E+04  0.00000000000E+00 0.  1.
        6    2    1    2  501    0  0.29887563345E+03  0.78900405398E+02 -0.76654810778E+03  0.84449694799E+03  0.17328351162E+03 0.  0.
       24    2    3    3    0    0  0.25565149935E+03  0.96976642921E+02 -0.73391724756E+03  0.78720873656E+03  0.79378273160E+02 0.  0.
       -6    2    1    2    0  503 -0.29887563345E+03 -0.78900405398E+02 -0.80771498278E+03  0.88189796618E+03  0.17259377482E+03 0.  0.
      -24    2    5    5    0    0 -0.18037881465E+03 -0.46980057660E+02 -0.31920371942E+03  0.37818599581E+03  0.79937415170E+02 0.  0.
        5    1    3    3  501    0  0.43224134099E+02 -0.18076237523E+02 -0.32630860213E+02  0.57288211438E+02  0.47000000000E+01 0. -1.
        4    1    4    4  502    0  0.16146452025E+03  0.21988388484E+02 -0.45965835368E+03  0.48768850985E+03  0.00000000000E+00 0. -1.
       -3    1    4    4    0  502  0.94186979101E+02  0.74988254437E+02 -0.27425889388E+03  0.29952022671E+03  0.00000000000E+00 0.  1.
       -5    1    5    5    0  503 -0.11849681880E+03 -0.31920347738E+02 -0.48851126336E+03  0.50371197037E+03  0.47000000000E+01 0.  1.
       11    1    6    6    0    0 -0.26837780237E+02 -0.32971555977E+02 -0.35889552827E+02  0.55636768003E+02  0.00000000000E+00 0. -1.
      -12    1    6    6    0    0 -0.15354103441E+03 -0.14008501683E+02 -0.28331416659E+03  0.32254922781E+03  0.00000000000E+00 0.  1.
</event>
<event>
12   0  0.1544783E-01  0.1867029E+03  0.7957747E-01  0.1167312E+00
       21   -1    0    0  504  503  0.00000000000E+00  0.00000000000E+00  0.38575657292E+03  0.38575657292E+03  0.00000000000E+00 0.  1.
       21   -1    0    0  501  504  0.00000000000E+00  0.00000000000E+00 -0.15434849384E+03  0.15434849384E+03  0.00000000000E+00 0.  1.
        6    2    1    2  501    0  0.21274197435E+02 -0.62359588204E+02 -0.58995289723E+02  0.19580200252E+03  0.17469021228E+03 0.  0.
       24    2    3    3    0    0  0.42450691674E+02 -0.62496744620E+02 -0.10013575222E+03  0.14929296712E+03  0.80952559246E+02 0.  0.
       -6    2    1    2    0  503 -0.21274197435E+02  0.62359588204E+02  0.29040336880E+03  0.34430306424E+03  0.17282700517E+03 0.  0.
      -24    2    5    5    0    0  0.52046035005E+02  0.22172604219E+02  0.18547318782E+03  0.21005224284E+03  0.80754115574E+02 0.  0.
        5    1    3    3  501    0 -0.21176494239E+02  0.13715641619E+00  0.41140462492E+02  0.46509035403E+02  0.47000000000E+01 0. -1.
        2    1    4    4  502    0  0.47391837480E+02 -0.55468137591E+00 -0.32627016294E+02  0.57539691722E+02  0.00000000000E+00 0. -1.
       -1    1    4    4    0  502 -0.49411458063E+01 -0.61942063245E+02 -0.67508735921E+02  0.91753275399E+02  0.00000000000E+00 0.  1.
       -5    1    5    5    0  503 -0.73320232440E+02  0.40186983986E+02  0.10493018098E+03  0.13425082140E+03  0.47000000000E+01 0.  1.
       11    1    6    6    0    0  0.26534426048E+02  0.80166864854E+01  0.61785150540E+01  0.28399244288E+02  0.00000000000E+00 0. -1.
      -12    1    6    6    0    0  0.25511608957E+02  0.14155917733E+02  0.17929467277E+03  0.18165299855E+03  0.00000000000E+00 0.  1.
</event>
<event>
12   0  0.1544783E-01  0.2051555E+03  0.7957747E-01  0.1151849E+00
       21   -1    0    0  504  503  0.00000000000E+00  0.00000000000E+00  0.19895275578E+03  0.19895275578E+03  0.00000000000E+00 0.  1.
       21   -1    0    0  501  504  0.00000000000E+00  0.00000000000E+00 -0.44107476865E+03  0.44107476865E+03  0.00000000000E+00 0. -1.
        6    2    1    2  501    0  0.16205468978E+02 -0.10808195027E+03 -0.35198916231E+03  0.40741274400E+03  0.17362156660E+03 0.  0.
       24    2    3    3    0    0  0.38651526069E+02 -0.22123910037E+02 -0.27086329518E+03  0.28701296627E+03  0.83821896107E+02 0.  0.
       -6    2    1    2    0  503 -0.16205468978E+02  0.10808195027E+03  0.10986714944E+03  0.23261478044E+03  0.17347772293E+03 0.  0.
      -24    2    5    5    0    0  0.56354590217E+02  0.43269311346E+02  0.50837149749E+02  0.11871890159E+03  0.80384629483E+02 0.  0.
        5    1    3    3  501    0 -0.22446057091E+02 -0.85958040234E+02 -0.81125867123E+02  0.12039977773E+03  0.47000000000E+01 0. -1.
      -11    1    4    4    0    0 -0.18422056227E+02  0.11075020853E+02 -0.27796414011E+02  0.35137855290E+02  0.00000000000E+00 0.  1.
       12    1    4    4    0    0  0.57073582296E+02 -0.33198930890E+02 -0.24306688117E+03  0.25187511098E+03  0.00000000000E+00 0. -1.
       -5    1    5    5    0  503 -0.72560059195E+02  0.64812638925E+02  0.59029999691E+02  0.11389587885E+03  0.47000000000E+01 0.  1.
        1    1    6    6  502    0  0.15088271633E+02 -0.21579582759E+02 -0.41314382399E+00  0.26334483491E+02  0.00000000000E+00 0. -1.
       -2    1    6    6    0  502  0.41266318584E+02  0.64848894105E+02  0.51250293573E+02  0.92384418098E+02  0.00000000000E+00 0.  1.
</event>
<event>
12   0  0.1544783E-01  0.2165417E+03  0.7957747E-01  0.1143171E+00
       21   -1    0    0  504  503  0.00000000000E+00  0.00000000000E+00  0.39587330119E+03  0.39587330119E+03  0.00000000000E+00 0.  1.
       21   -1    0    0  501  504  0.00000000000E+00  0.00000000000E+00 -0.31407583255E+03  0.31407583255E+03  0.00000000000E+00 0.  1.
        6    2    1    2  501    0 -0.11804113516E+03 -0.54349222724E+01 -0.24104552838E+03  0.32402664515E+03  0.18145818264E+03 0.  0.
       24    2    3    3    0    0 -0.39929070304E+02  0.56267258259E+02 -0.76045500014E+02  0.13126836876E+03  0.81780997523E+02 0.  0.
       -6    2    1    2    0  503  0.11804113516E+03  0.54349222724E+01  0.32284299703E+03  0.38592248859E+03  0.17534343016E+03 0.  0.
      -24    2    5    5    0    0  0.47990584448E+02 -0.58464737700E+02  0.13210911079E+03  0.17286908787E+03  0.81912652486E+02 0.  0.
        5    1    3    3  501    0 -0.78112064856E+02 -0.61702180532E+02 -0.16500002837E+03  0.19275827640E+03  0.47000000000E+01 0. -1.
        2    1    4    4  502    0  0.12924372328E+02  0.24912708879E+02 -0.62250957558E+02  0.68285168087E+02  0.00000000000E+00 0. -1.
       -1    1    4    4    0  502 -0.52853442632E+02  0.31354549380E+02 -0.13794542456E+02  0.62983200668E+02  0.00000000000E+00 0.  1.
       -5    1    5    5    0  503  0.70050550712E+02  0.63899659972E+02  0.19073388624E+03  0.21305340072E+03  0.47000000000E+01 0.  1.
       11    1    6    6    0    0  0.31403789185E+01 -0.41641703284E+02  0.11442568592E+03  0.12180776260E+03  0.00000000000E+00 0. -1.
      -12    1    6    6    0    0  0.44850205529E+02 -0.16823034415E+02  0.17683424872E+02  0.51061325268E+02  0.00000000000E+00 0.  1.
</event>
<event>
12   0  0.1544783E-01  0.2347935E+03  0.7957747E-01  0.1130411E+00
       21   -1    0    0  504  503  0.00000000000E+00  0.00000000000E+00  0.13238430562E+04  0.13238430562E+04  0.00000000000E+00 0.  1.
       21   -1    0    0  501  504  0.00000000000E+00  0.00000000000E+00 -0.80503653272E+02  0.80503653272E+02  0.00000000000E+00 0.  1.
        6    2    1    2  501    0 -0.75106489844E+02  0.13244333981E+03  0.13197193514E+03  0.26934101672E+03  0.17873379240E+03 0.  0.
       24    2    3    3    0    0 -0.47303008581E+02 -0.42742248471E+01  0.55366971181E+01  0.80999079091E+02  0.65378529960E+02 0.  0.
       -6    2    1    2    0  503  0.75106489844E+02 -0.13244333981E+03  0.11113674678E+04  0.11350056928E+04  0.17296835273E+03 0.  0.
      -24    2    5    5    0    0 -0.27770238646E+02 -0.70174641781E+02  0.54114371827E+03  0.55222080402E+03  0.80097603382E+02 0.  0.
        5    1    3    3  501    0 -0.27803481263E+02  0.13671756466E+03  0.12643523802E+03  0.18834193763E+03  0.47000000000E+01 0. -1.
        4    1    4    4  502    0 -0.16993466869E+02 -0.26671584891E+02  0.23352957356E+02  0.39313000064E+02  0.00000000000E+00 0. -1.
       -3    1    4    4    0  502 -0.30309541713E+02  0.22397360043E+02 -0.17816260238E+02  0.41686079027E+02  0.00000000000E+00 0.  1.
       -5    1    5    5    0  503  0.10287672849E+03 -0.62268698030E+02  0.57022374956E+03  0.58278488878E+03  0.47000000000E+01 0.  1.
       13    1    6    6    0    0 -0.41201397873E+02 -0.14898963762E+02  0.13055446702E+03  0.13770985138E+03  0.00000000000E+00 0. -1.
      -14    1    6    6    0    0  0.13431159228E+02 -0.55275678020E+02  0.41058925125E+03  0.41451095264E+03  0.00000000000E+00 0.  1.
</event>
<event>
12   0  0.1544783E-01  0.2173662E+03  0.7957747E-01  0.1142565E+00
       21   -1    0    0  501  503  0.00000000000E+00  0.00000000000E+00  0.11613642225E+03  0.11613642225E+03  0.00000000000E+00 0. -1.
       21   -1    0    0  503  504  0.00000000000E+00  0.00000000000E+00 -0.39109293960E+03  0.39109293960E+03  0.00000000000E+00 0. -1.
        6    2    1    2  501    0  0.11598373093E+03  0.21221185650E+02 -0.10704511619E+03  0.23256175991E+03  0.16948082697E+03 0.  0.
       24    2    3    3    0    0  0.83528630626E+02 -0.46295013849E+02 -0.36801578513E+02  0.12976090721E+03  0.79770147401E+02 0.  0.
       -6    2    1    2    0  504 -0.11598373093E+03 -0.21221185650E+02 -0.16791140116E+03  0.27466760193E+03  0.18260747069E+03 0.  0.
      -24    2    5    5    0    0 -0.14783120598E+03  0.12211666719E+02 -0.14567536222E+03  0.22320354932E+03  0.81211594035E+02 0.  0.
        5    1    3    3  501    0  0.32455100309E+02  0.67516199499E+02 -0.70243537680E+02  0.10280085270E+03  0.47000000000E+01 0. -1.
        4    1    4    4  502    0  0.20772720560E+02 -0.51727436478E+02 -0.36756474285E+02  0.66770292840E+02  0.00000000000E+00 0. -1.
       -3    1    4    4    0  502  0.62755910066E+02  0.54324226291E+01 -0.45104227868E-01  0.62990614366E+02  0.00000000000E+00 0.  1.
       -5    1    5    5    0  504  0.31847475042E+02 -0.33432852369E+02 -0.22236038937E+02  0.51464052616E+02  0.47000000000E+01 0.  1.
       11    1    6    6    0    0 -0.88712053483E+02 -0.52890976677E+01 -0.13347346103E+03  0.16035263573E+03  0.00000000000E+00 0. -1.
      -12    1    6    6    0    0 -0.59119152494E+02  0.17500764387E+02 -0.12201901188E+02  0.62850913584E+02  0.00000000000E+00 0.  1.
</event>
<event>
12   0  0.1544783E-01  0.1912351E+03  0.7957747E-01  0.1163338E+00
        2   -1    0    0  502    0  0.00000000000E+00  0.00000000000E+00  0.72332547682E+03  0.72332547682E+03  0.00000000000E+00 0. -1.
       -2   -1    0    0    0  501  0.00000000000E+00  0.00000000000E+00 -0.60936913174E+02  0.60936913174E+02  0.00000000000E+00 0.  1.
        6    2    1    2  502    0 -0.79979783672E+02  0.12074044569E+02  0.48903079362E+03  0.52411866014E+03  0.17031354747E+03 0.  0.
       24    2    3    3    0    0 -0.55961148221E+02 -0.27408813975E+02  0.45644284853E+03  0.46737489279E+03  0.78843663317E+02 0.  0.
       -6    2    1    2    0  501  0.79979783672E+02 -0.12074044569E+02  0.17335777003E+03  0.26014372986E+03  0.17629320862E+03 0.  0.
      -24    2    5    5    0    0  0.15126359703E+02  0.45472918529E+02  0.45514131737E+02  0.10560019096E+03  0.82360615987E+02 0.  0.
        5    1    3    3  502    0 -0.24018635451E+02  0.39482858544E+02  0.32587945091E+02  0.56743767350E+02  0.47000000000E+01 0. -1.
      -11    1    4    4    0    0 -0.11511658012E+02  0.14625807961E+02  0.22774882375E+02  0.29413054855E+02  0.00000000000E+00 0.  1.
       12    1    4    4    0    0 -0.44449490210E+02 -0.42034621937E+02  0.43366796615E+03  0.43796183793E+03  0.00000000000E+00 0. -1.
       -5    1    5    5    0  501  0.64853423969E+02 -0.57546963098E+02  0.12784363830E+03  0.15454353890E+03  0.47000000000E+01 0.  1.
        1    1    6    6  503    0 -0.70866754540E+01  0.21652585054E+02  0.64149789879E+02  0.68075332905E+02  0.00000000000E+00 0. -1.
       -2    1    6    6    0  503  0.22213035157E+02  0.23820333475E+02 -0.18635658142E+02  0.37524858056E+02  0.00000000000E+00 0.  1.
</event>
<event>
12   0  0.1544783E-01  0.1939312E+03  0.7957747E-01  0.1161031E+00
       21   -1    0    0  501  503  0.00000000000E+00  0.00000000000E+00  0.96474037491E+02  0.96474037491E+02  0.00000000000E+00 0. -1.
       21   -1    0    0  503  504  0.00000000000E+00  0.00000000000E+00 -0.40896300620E+03  0.40896300620E+03  0.00000000000E+00 0. -1.
        6    2    1    2  501    0 -0.84001908076E+02 -0.24823546586E+02 -0.99024390120E+02  0.21775019825E+03  0.17302251291E+03 0.  0.
       24    2    3    3    0    0  0.26212194526E+02 -0.85047022247E+01 -0.23451947422E+02  0.83040372366E+02  0.74741558072E+02 0.  0.
       -6    2    1    2    0  504  0.84001908076E+02  0.24823546586E+02 -0.21346457859E+03  0.28768684545E+03  0.17182568406E+03 0.  0.
      -24    2    5    5    0    0  0.68017914740E+01  0.19066838591E+02 -0.18704668259E+03  0.20575398928E+03  0.83297262480E+02 0.  0.
        5    1    3    3  501    0 -0.11021410260E+03 -0.16318844361E+02 -0.75572442697E+02  0.13470982588E+03  0.47000000000E+01 0. -1.
        4    1    4    4  502    0  0.46729250052E+02  0.60312540057E+00  0.47741154872E+01  0.46976363730E+02  0.00000000000E+00 0. -1.
       -3    1    4    4    0  502 -0.20517055526E+02 -0.91078276252E+01 -0.28226062909E+02  0.36064008636E+02  0.00000000000E+00 0.  1.
       -5    1    5    5    0  504  0.77200116602E+02  0.57567079951E+01 -0.26417896004E+02  0.81932856166E+02  0.47000000000E+01 0.  1.
       11    1    6    6    0    0  0.41323974145E+02  0.16157113204E+02 -0.14293841218E+03  0.14966667238E+03  0.00000000000E+00 0. -1.
      -12    1    6    6    0    0 -0.34522182671E+02  0.29097253870E+01 -0.44108270407E+02  0.56087316895E+02  0.00000000000E+00 0.  1.
</event>
<event>
12   0  0.1544783E-01  0.2053265E+03  0.7957747E-01  0.1151715E+00
       21   -1    0    0  504  503  0.00000000000E+00  0.00000000000E+00  0.25606589096E+03  0.25606589096E+03  0.00000000000E+00 0. -1.
       21   -1    0    0  501  504  0.00000000000E+00  0.00000000000E+00 -0.22230137044E+03  0.22230137044E+03  0.00000000000E+00 0. -1.
        6    2    1    2  501    0 -0.10738771400E+03  0.15259879281E+01 -0.10718897717E+03  0.22931535716E+03  0.17193489014E+03 0.  0.
       24    2    3    3    0    0 -0.48418299183E+02  0.21662899491E+02 -0.13085888166E+03  0.16249289484E+03  0.80413189564E+02 0.  0.
       -6    2    1    2    0  503  0.10738771400E+03 -0.15259879281E+01  0.14095349769E+03  0.24905190424E+03  0.17499860781E+03 0.  0.
      -24    2    5    5    0    0  0.65093044780E+02 -0.39684230233E+02  0.16634131407E+02  0.11222250194E+03  0.80655148663E+02 0.  0.
        5    1    3    3  501    0 -0.58969414817E+02 -0.20136911563E+02  0.23669904493E+02  0.66822462315E+02  0.47000000000E+01 0. -1.
      -11    1    4    4    0    0  0.19616013647E+02  0.67269433531E+01 -0.10055342748E+02  0.23046684709E+02  0.00000000000E+00 0.  1.
       12    1    4    4    0    0 -0.68034312830E+02  0.14935956138E+02 -0.12080353891E+03  0.13944621014E+03  0.00000000000E+00 0. -1.
       -5    1    5    5    0  503  0.42294669220E+02  0.38158242305E+02  0.12431936628E+03  0.13682940230E+03  0.47000000000E+01 0.  1.
        3    1    6    6  502    0  0.31489619809E+02 -0.28984742117E+02  0.48506289946E+02  0.64688264745E+02  0.00000000000E+00 0. -1.
       -4    1    6    6    0  502  0.33603424971E+02 -0.10699488115E+02 -0.31872158539E+02  0.47534237194E+02  0.00000000000E+00 0.  1.
</event>
<event>
12   0  0.1544783E-01  0.2059043E+03  0.7957747E-01  0.1151260E+00
       21   -1    0    0  504  503  0.00000000000E+00  0.00000000000E+00  0.56591322046E+03  0.56591322046E+03  0.00000000000E+00 0.  1.
       21   -1    0    0  501  504  0.00000000000E+00  0.00000000000E+00 -0.75088580472E+02  0.75088580472E+02  0.00000000000E+00 0.  1.
        6    2    1    2  501    0  0.11085220364E+03  0.53996046984E+01  0.26227683294E+03  0.33344520388E+03  0.17343356108E+03 0.  0.
       24    2    3    3    0    0 -0.80956927131E+01 -0.19597688118E+02  0.11716565216E+03  0.14409681735E+03  0.81157212270E+02 0.  0.
       -6    2    1    2    0  503 -0.11085220364E+03 -0.53996046984E+01  0.22854780705E+03  0.30755659706E+03  0.17331933967E+03 0.  0.
      -24    2    5    5    0    0 -0.10380490132E+03 -0.50428987466E+02  0.22165980996E+03  0.26122254601E+03  0.76063176891E+02 0.  0.
        5    1    3    3  501    0  0.11894789635E+03  0.24997292816E+02  0.14511118079E+03  0.18934838653E+03  0.47000000000E+01 0. -1.
        4    1    4    4  502    0 -0.98148958959E+01  0.31198736577E+02  0.52398892781E+02  0.61768416769E+02  0.00000000000E+00 0. -1.
       -3    1    4    4    0  502  0.17192031828E+01 -0.50796424694E+02  0.64766759377E+02  0.82328400577E+02  0.00000000000E+00 0.  1.
       -5    1    5    5    0  503 -0.70473023209E+01  0.45029382767E+02  0.68879970887E+01  0.46334051046E+02  0.47000000000E+01 0.  1.
       11    1    6    6    0    0  0.26902796331E+01 -0.10430148676E+02 -0.13677078327E+01  0.10858003068E+02  0.00000000000E+00 0. -1.
      -12    1    6    6    0    0 -0.10649518095E+03 -0.39998838789E+02  0.22302751779E+03  0.25036454294E+03  0.00000000000E+00 0.  1.
</event>
<event>
12   0  0.1544783E-01  0.2142037E+03  0.7957747E-01  0.1144904E+00
       21   -1    0    0  501  503  0.00000000000E+00  0.00000000000E+00  0.47182090641E+03  0.47182090641E+03  0.00000000000E+00 0. -1.
       21   -1    0    0  503  504  0.00000000000E+00  0.00000000000E+00 -0.15108061366E+03  0.15108061366E+03  0.00000000000E+00 0.  1.
        6    2    1    2  501    0  0.69372975390E+02  0.10470418856E+03  0.34818276095E+03  0.40879634900E+03  0.17351554142E+03 0.  0.
       24    2    3    3    0    0  0.99119726202E+02  0.10705119136E+03  0.21271019935E+03  0.26999691617E+03  0.79799925709E+02 0.  0.
       -6    2    1    2    0  504 -0.69372975390E+02 -0.10470418856E+03 -0.27442468194E+02  0.21410517107E+03  0.17120852316E+03 0.  0.
      -24    2    5    5    0    0  0.19948032494E+02 -0.43827338057E+02 -0.45360676834E+02  0.10443573332E+03  0.80811334780E+02 0.  0.
        5    1    3    3  501    0 -0.29746750811E+02 -0.23470027910E+01  0.13547256160E+03  0.13879943282E+03  0.47000000000E+01 0. -1.
        2    1    4    4  502    0  0.58111529407E+02  0.18247379608E+02  0.12308073780E+03  0.13732729055E+03  0.00000000000E+00 0. -1.
       -1    1    4    4    0  502  0.41008196795E+02  0.88803811748E+02  0.89629461548E+02  0.13266962562E+03  0.00000000000E+00 0.  1.
       -5    1    5    5    0  504 -0.89321007884E+02 -0.60876850508E+02  0.17918208640E+02  0.10966943776E+03  0.47000000000E+01 0.  1.
       13    1    6    6    0    0  0.29959567236E+02  0.64416208397E+01 -0.43417468518E+02  0.53142701479E+02  0.00000000000E+00 0. -1.
      -14    1    6    6    0    0 -0.10011534743E+02 -0.50268958896E+02 -0.19432083162E+01  0.51293031837E+02  0.00000000000E+00 0.  1.
</event>
<event>
12   0  0.1544783E-01  0.1810370E+03  0.7957747E-01  0.1172459E+00
       21   -1    0    0  501  503  0.00000000000E+00  0.00000000000E+00  0.85182138031E+02  0.85182138031E+02  0.00000000000E+00 0. -1.
       21   -1    0    0  503  504  0.00000000000E+00  0.00000000000E+00 -0.92666572248E+03  0.92666572248E+03  0.00000000000E+00 0. -1.
        6    2    1    2  501    0  0.46488835260E+02 -0.12451197299E+02 -0.33539214991E+02  0.18411750697E+03  0.17452258682E+03 0.  0.
       24    2    3    3    0    0  0.93844641542E+02  0.15100612763E+02 -0.28803817445E+02  0.12892521931E+03  0.82202232475E+02 0.  0.
       -6    2    1    2    0  504 -0.46488835260E+02  0.12451197299E+02 -0.80794436946E+03  0.82773035355E+03  0.17334125281E+03 0.  0.
      -24    2    5    5    0    0  0.18130318107E+01 -0.29795215120E+02 -0.21435120977E+03  0.23066020779E+03  0.79791280221E+02 0.  0.
        5    1    3    3  501    0 -0.47355806282E+02 -0.27551810063E+02 -0.47353975466E+01  0.55192287652E+02  0.47000000000E+01 0. -1.
      -13    1    4    4    0    0  0.64951453652E+02 -0.28071069993E+02 -0.27538483357E+01  0.70811439632E+02  0.00000000000E+00 0.  1.
       14    1    4    4    0    0  0.28893187890E+02  0.43171682756E+02 -0.26049969109E+02  0.58113779683E+02  0.00000000000E+00 0. -1.
       -5    1    5    5    0  504 -0.48301867070E+02  0.42246412420E+02 -0.59359315969E+03  0.59707014576E+03  0.47000000000E+01 0.  1.
        1    1    6    6  502    0  0.28091119470E+02  0.14375833533E+02 -0.10841867797E+03  0.11291760410E+03  0.00000000000E+00 0. -1.
       -2    1    6    6    0  502 -0.26278087659E+02 -0.44171048653E+02 -0.10593253180E+03  0.11774260369E+03  0.00000000000E+00 0.  1.
</event>
<event>
12   0  0.1544783E-01  0.1765154E+03  0.7957747E-01  0.1176717E+00
       -1   -1    0    0    0  501  0.00000000000E+00  0.00000000000E+00  0.47945932824E+03  0.47945932824E+03  0.00000000000E+00 0. -1.
        1   -1    0    0  502    0  0.00000000000E+00  0.00000000000E+00 -0.89392484459E+02  0.89392484459E+02  0.00000000000E+00 0.  1.
        6    2    1    2  502    0 -0.73242781090E+01  0.32270237616E+02  0.45825468123E+02  0.18165566606E+03  0.17263775426E+03 0.  0.
       24    2    3    3    0    0 -0.47891095044E+02  0.47826458462E+02  0.72810608781E+02  0.13029468418E+03  0.84228218913E+02 0.  0.
       -6    2    1    2    0  501  0.73242781090E+01 -0.32270237616E+02  0.34424137565E+03  0.38719614663E+03  0.17413706662E+03 0.  0.
      -24    2    5    5    0    0 -0.78700415314E+01  0.24796135551E+02  0.78176606985E+02  0.11461590263E+03  0.79677081795E+02 0.  0.
        5    1    3    3  502    0  0.40566816935E+02 -0.15556220846E+02 -0.26985140658E+02  0.51360981879E+02  0.47000000000E+01 0. -1.
        2    1    4    4  503    0 -0.10571597074E+01  0.48919746308E+02  0.68756801596E+01  0.49411882611E+02  0.00000000000E+00 0. -1.
       -1    1    4    4    0  503 -0.46833935337E+02 -0.10932878465E+01  0.65934928622E+02  0.80882801570E+02  0.00000000000E+00 0.  1.
       -5    1    5    5    0  501  0.15194319640E+02 -0.57066373168E+02  0.26606476867E+03  0.27258024401E+03  0.47000000000E+01 0.  1.
       13    1    6    6    0    0  0.93711382718E+01 -0.18926701205E+02  0.61039051364E+02  0.64589504120E+02  0.00000000000E+00 0. -1.
      -14    1    6    6    0    0 -0.17241179803E+02  0.43722836756E+02  0.17137555621E+02  0.50026398508E+02  0.00000000000E+00 0.  1.
</event>
<event>
12   0  0.1544783E-01  0.2132992E+03  0.7957747E-01  0.1145582E+00
       21   -1    0    0  504  503  0.00000000000E+00  0.00000000000E+00  0.46220218810E+03  0.46220218810E+03  0.00000000000E+00 0.  1.
       21   -1    0    0  501  504  0.00000000000E+00  0.00000000000E+00 -0.15671401716E+03  0.15671401716E+03  0.00000000000E+00 0.  1.
        6    2    1    2  501    0 -0.31618862088E+02  0.11991201808E+03 -0.51407986345E+02  0.20313812361E+03  0.15245875404E+03 0.  0.
       24    2    3    3    0    0 -0.40617436919E+02  0.13787677737E+03 -0.19149383439E+02  0.16484433316E+03  0.78403911702E+02 0.  0.
       -6    2    1    2    0  503  0.31618862088E+02 -0.11991201808E+03  0.35689615729E+03  0.41577808165E+03  0.17354509953E+03 0.  0.
      -24    2    5    5    0    0 -0.79983476068E+01 -0.94921721917E+00  0.94271160657E+02  0.12471855140E+03  0.81257558129E+02 0.  0.
        5    1    3    3  501    0  0.89985748315E+01 -0.17964759286E+02 -0.32258602906E+02  0.38293790445E+02  0.47000000000E+01 0. -1.
      -11    1    4    4    0    0 -0.21481561352E+02  0.33169079382E+00 -0.14456668941E+02  0.25895226853E+02  0.00000000000E+00 0.  1.
       12    1    4    4    0    0 -0.19135875567E+02  0.13754508658E+03 -0.46927144985E+01  0.13894910631E+03  0.00000000000E+00 0. -1.
       -5    1    5    5    0  503  0.39617209695E+02 -0.11896280087E+03  0.26262499664E+03  0.29105953026E+03  0.47000000000E+01 0.  1.
        1    1    6    6  502    0 -0.28625369757E+02 -0.32902753458E+02  0.51372164175E+02  0.67387700887E+02  0.00000000000E+00 0. -1.
       -2    1    6    6    0  502  0.20627022151E+02  0.31953536239E+02  0.42898996482E+02  0.57330850509E+02  0.00000000000E+00 0.  1.
</event>
<event>
12   0  0.1544783E-01  0.1972684E+03  0.7957747E-01  0.1158231E+00
       21   -1    0    0  504  503  0.00000000000E+00  0.00000000000E+00  0.26686148830E+03  0.26686148830E+03  0.00000000000E+00 0. -1.
       21   -1    0    0  501  504  0.00000000000E+00  0.00000000000E+00 -0.15867439900E+03  0.15867439900E+03  0.00000000000E+00 0. -1.
        6    2    1    2  501    0 -0.48263577715E+02  0.80057844678E+02  0.11519781340E+03  0.22814294982E+03  0.17332062171E+03 0.  0.
       24    2    3    3    0    0 -0.35249579518E+02 -0.22333313185E+02  0.66443522944E+02  0.11389591836E+03  0.82560455091E+02 0.  0.
       -6    2    1    2    0  503  0.48263577715E+02 -0.80057844678E+02 -0.70107241047E+01  0.19739293749E+03  0.17371295314E+03 0.  0.
      -24    2    5    5    0    0  0.21998621138E+01 -0.51883810308E+02 -0.67662924531E+02  0.11605154873E+03  0.78695117014E+02 0.  0.
        5    1    3    3  501    0 -0.13013998197E+02  0.10239115786E+03  0.48754290457E+02  0.11424703145E+03  0.47000000000E+01 0. -1.
        4    1    4    4  502    0  0.23358483097E+01 -0.21487996330E+02  0.72645488062E+02  0.75792856585E+02  0.00000000000E+00 0. -1.
       -3    1    4    4    0  502 -0.37585427828E+02 -0.84531685514E+00 -0.62019651182E+01  0.38103061779E+02  0.00000000000E+00 0.  1.
       -5    1    5    5    0  503  0.46063715601E+02 -0.28174034369E+02  0.60652200426E+02  0.81341388753E+02  0.47000000000E+01 0.  1.
       11    1    6    6    0    0  0.39017138761E+02 -0.25073607987E+02 -0.21218378474E+02  0.51002377588E+02  0.00000000000E+00 0. -1.
      -12    1    6    6    0    0 -0.36817276647E+02 -0.26810202321E+02 -0.46444546057E+02  0.65049171145E+02  0.00000000000E+00 0.  1.
</event>
<event>
12   0  0.1544783E-01  0.1769306E+03  0.7957747E-01  0.1176320E+00
       -2   -1    0    0    0  501  0.00000000000E+00  0.00000000000E+00  0.91332620917E+02  0.91332620917E+02  0.00000000000E+00 0.  1.
        2   -1    0    0  502    0  0.00000000000E+00  0.00000000000E+00 -0.91199410849E+03  0.91199410849E+03  0.00000000000E+00 0. -1.
        6    2    1    2  502    0 -0.31267309516E+02 -0.94309950400E+01 -0.14950359491E+02  0.17864999019E+03  0.17500204980E+03 0.  0.
       24    2    3    3    0    0  0.38345232483E+02 -0.18661613913E+02  0.29796423612E+02  0.95250500229E+02  0.79788584684E+02 0.  0.
       -6    2    1    2    0  501  0.31267309516E+02  0.94309950400E+01 -0.80571112809E+03  0.82467673922E+03  0.17278516711E+03 0.  0.
      -24    2    5    5    0    0 -0.44177622713E+02 -0.48284806193E+01 -0.45868652753E+03  0.46922852381E+03  0.88357797878E+02 0.  0.
        5    1    3    3  502    0 -0.69612541999E+02  0.92306188730E+01 -0.44746783103E+02  0.83399489964E+02  0.47000000000E+01 0. -1.
      -13    1    4    4    0    0  0.17325669722E+02 -0.37652818546E+02  0.46558484235E+02  0.62334629461E+02  0.00000000000E+00 0.  1.
       14    1    4    4    0    0  0.21019562761E+02  0.18991204633E+02 -0.16762060623E+02  0.32915870768E+02  0.00000000000E+00 0. -1.
       -5    1    5    5    0  501  0.75444932229E+02  0.14259475659E+02 -0.34702460056E+03  0.35544821541E+03  0.47000000000E+01 0.  1.
        3    1    6    6  503    0 -0.54357608968E+02  0.30363643124E+02 -0.28620885515E+03  0.29290307141E+03  0.00000000000E+00 0. -1.
       -4    1    6    6    0  503  0.10179986254E+02 -0.35192123743E+02 -0.17247767238E+03  0.17632545240E+03  0.00000000000E+00 0.  1.
</event>
<event>
12   0  0.1544783E-01  0.2521851E+03  0.7957747E-01  0.1119378E+00
       21   -1    0    0  504  503  0.00000000000E+00  0.00000000000E+00  0.24465342888E+03  0.24465342888E+03  0.00000000000E+00 0. -1.
       21   -1    0    0  501  504  0.00000000000E+00  0.00000000000E+00 -0.39266448377E+03  0.39266448377E+03  0.00000000000E+00 0.  1.
        6    2    1    2  501    0  0.12345672377E+03  0.13264509634E+03 -0.26025012710E+03  0.36128359193E+03  0.17308789939E+03 0.  0.
       24    2    3    3    0    0  0.25536148210E+02  0.19208583154E+02 -0.15928269100E+03  0.18052741695E+03  0.78728064152E+02 0.  0.
       -6    2    1    2    0  503 -0.12345672377E+03 -0.13264509634E+03  0.11223907221E+03  0.27603432071E+03  0.17538829109E+03 0.  0.
      -24    2    5    5    0    0 -0.15251516049E+03 -0.10258916424E+03  0.61063392324E+02  0.20978636217E+03  0.80598815567E+02 0.  0.
        5    1    3    3  501    0  0.97920575557E+02  0.11343651319E+03 -0.10096743610E+03  0.18075617498E+03  0.47000000000E+01 0. -1.
      -11    1    4    4    0    0  0.52444299938E+02  0.77980470276E+01 -0.12296949449E+03  0.13391307147E+03  0.00000000000E+00 0.  1.
       12    1    4    4    0    0 -0.26908151728E+02  0.11410536126E+02 -0.36313196509E+02  0.46614345483E+02  0.00000000000E+00 0. -1.
       -5    1    5    5    0  503  0.29058436720E+02 -0.30055932100E+02  0.51175679890E+02  0.66247958544E+02  0.47000000000E+01 0.  1.
        1    1    6    6  502    0 -0.96297916886E+02 -0.99107895666E+02  0.66203892607E+02  0.15322734474E+03  0.00000000000E+00 0. -1.
       -2    1    6    6    0  502 -0.56217243602E+02 -0.34812685751E+01 -0.51405002827E+01  0.56559017426E+02  0.00000000000E+00 0.  1.
</event>
<event>
12   0  0.1544783E-01  0.2039359E+03  0.7957747E-01  0.1152815E+00
       21   -1    0    0  501  503  0.00000000000E+00  0.00000000000E+00  0.22639714367E+03  0.22639714367E+03  0.00000000000E+00 0.  1.
       21   -1    0    0  503  504  0.00000000000E+00  0.00000000000E+00 -0.20987733676E+03  0.20987733676E+03  0.00000000000E+00 0.  1.
        6    2    1    2  501    0  0.31224499332E+02  0.10325885830E+03 -0.69168839916E+02  0.21534669573E+03  0.17306793398E+03 0.  0.
       24    2    3    3    0    0  0.78736018780E+02  0.65994363037E+02 -0.80898806939E+02  0.15365658944E+03  0.80691473582E+02 0.  0.
       -6    2    1    2    0  504 -0.31224499332E+02 -0.10325885830E+03  0.85688646820E+02  0.22092778470E+03  0.17271126392E+03 0.  0.
      -24    2    5    5    0    0  0.44968619789E+02 -0.59397783175E+02  0.17952301204E+02  0.10984453741E+03  0.78697292634E+02 0.  0.
        5    1    3    3  501    0 -0.47511519448E+02  0.37264495260E+02  0.11729967023E+02  0.61690106287E+02  0.47000000000E+01 0. -1.
      -11    1    4    4    0    0 -0.93075167085E+01  0.35048572391E+02 -0.31663512083E+02  0.48141565111E+02  0.00000000000E+00 0.  1.
       12    1    4    4    0    0  0.88043535489E+02  0.30945790647E+02 -0.49235294856E+02  0.10551502433E+03  0.00000000000E+00 0. -1.
       -5    1    5    5    0  504 -0.76193119121E+02 -0.43861075123E+02  0.67736345616E+02  0.11108324730E+03  0.47000000000E+01 0.  1.
        3    1    6    6  502    0  0.17255794498E+02  0.14810036630E+02 -0.11312064362E+02  0.25398079236E+02  0.00000000000E+00 0. -1.
       -4    1    6    6    0  502  0.27712825292E+02 -0.74207819805E+02  0.29264365566E+02  0.84446458172E+02  0.00000000000E+00 0.  1.
</event>
<event>
12   0  0.1544783E-01  0.1786484E+03  0.7957747E-01  0.1174691E+00
       -1   -1    0    0    0  501  0.00000000000E+00  0.00000000000E+00  0.27127827002E+02  0.27127827002E+02  0.00000000000E+00 0.  1.
        1   -1    0    0  502    0  0.00000000000E+00  0.00000000000E+00 -0.12562503528E+04  0.12562503528E+04  0.00000000000E+00 0. -1.
        6    2    1    2  502    0 -0.90356822173E+01 -0.43229085856E+02 -0.77878238908E+03  0.79918747590E+03  0.17392013876E+03 0.  0.
       24    2    3    3    0    0  0.67607425697E+01  0.15830794041E+02 -0.24183872127E+03  0.25875414157E+03  0.90395890352E+02 0.  0.
       -6    2    1    2    0  501  0.90356822173E+01  0.43229085856E+02 -0.45034013673E+03  0.48419070392E+03  0.17229045707E+03 0.  0.
      -24    2    5    5    0    0  0.34526186407E+02  0.70940143622E+02 -0.19045156769E+03  0.22154678748E+03  0.81157981012E+02 0.  0.
        5    1    3    3  502    0 -0.15796424787E+02 -0.59059879897E+02 -0.53694366781E+03  0.54043333433E+03  0.47000000000E+01 0. -1.
        2    1    4    4  503    0  0.38576185003E+02 -0.15667848918E+02 -0.72582880751E+02  0.83677225798E+02  0.00000000000E+00 0. -1.
       -1    1    4    4    0  503 -0.31815442433E+02  0.31498642959E+02 -0.16925584052E+03  0.17507691577E+03  0.00000000000E+00 0.  1.
       -5    1    5    5    0  501 -0.25490504190E+02 -0.27711057766E+02 -0.25988856904E+03  0.26264391644E+03  0.47000000000E+01 0.  1.
       13    1    6    6    0    0 -0.85456454600E+01  0.56859276755E+02 -0.15059356569E+03  0.16119685927E+03  0.00000000000E+00 0. -1.
      -14    1    6    6    0    0  0.43071831867E+02  0.14080866867E+02 -0.39858001999E+02  0.60349928214E+02  0.00000000000E+00 0.  1.
</event>
<event>
12   0  0.1544783E-01  0.2165870E+03  0.7957747E-01  0.1143137E+00
       21   -1    0    0  501  503  0.00000000000E+00  0.00000000000E+00  0.35381412095E+03  0.35381412095E+03  0.00000000000E+00 0. -1.
       21   -1    0    0  503  504  0.00000000000E+00  0.00000000000E+00 -0.13707072812E+03  0.13707072812E+03  0.00000000000E+00 0. -1.
        6    2    1    2  501    0 -0.22972948512E+01 -0.13026047324E+03  0.15647332127E+03  0.26719627210E+03  0.17302277047E+03 0.  0.
       24    2    3    3    0    0 -0.66364185121E+02 -0.96796415533E+02  0.11833856437E+03  0.18533810652E+03  0.81070628374E+02 0.  0.
       -6    2    1    2    0  504  0.22972948512E+01  0.13026047324E+03  0.60270071559E+02  0.22368857698E+03  0.17155474197E+03 0.  0.
      -24    2    5    5    0    0 -0.53745997835E+01 -0.40666452252E+01  0.18231237323E+02  0.82649623825E+02  0.80331552816E+02 0.  0.
        5    1    3    3  501    0  0.64066890270E+02 -0.33464057711E+02  0.38134756896E+02  0.81858165572E+02  0.47000000000E+01 0. -1.
        4    1    4    4  502    0 -0.22927913125E+02 -0.54197410284E+02  0.10888374112E+03  0.12376880690E+03  0.00000000000E+00 0. -1.
       -3    1    4    4    0  502 -0.43436271996E+02 -0.42599005248E+02  0.94548232537E+01  0.61569299621E+02  0.00000000000E+00 0.  1.
       -5    1    5    5    0  504  0.76718946347E+01  0.13432711847E+03  0.42038834236E+02  0.14103895316E+03  0.47000000000E+01 0.  1.
       13    1    6    6    0    0  0.18804756196E+02  0.30856023084E+02 -0.70973282340E+00  0.36141620562E+02  0.00000000000E+00 0. -1.
      -14    1    6    6    0    0 -0.24179355979E+02 -0.34922668309E+02  0.18940970147E+02  0.46508003263E+02  0.00000000000E+00 0.  1.
</event>
<event>
12   0  0.1544783E-01  0.3239782E+03  0.7957747E-01  0.1082344E+00
       21   -1    0    0  501  503  0.00000000000E+00  0.00000000000E+00  0.23844289996E+03  0.23844289996E+03  0.00000000000E+00 0. -1.
       21   -1    0    0  503  504  0.00000000000E+00  0.00000000000E+00 -0.51731936899E+03  0.51731936899E+03  0.00000000000E+00 0.  1.
        6    2    1    2  501    0  0.16818006484E+03 -0.21446672605E+03  0.66321753396E+01  0.32404604663E+03  0.17516090830E+03 0.  0.
       24    2    3    3    0    0  0.88358295297E+02 -0.87254888575E+02 -0.59632750510E+02  0.15982821299E+03  0.81045597089E+02 0.  0.
       -6    2    1    2    0  504 -0.16818006484E+03  0.21446672605E+03 -0.28550864436E+03  0.43171622232E+03  0.17488053012E+03 0.  0.
      -24    2    5    5    0    0 -0.73715209406E+01  0.80785438341E+02 -0.82923299359E+02  0.14052386925E+03  0.79309885158E+02 0.  0.
        5    1    3    3  501    0  0.79821769540E+02 -0.12721183748E+03  0.66264925850E+02  0.16421783364E+03  0.47000000000E+01 0. -1.
      -11    1    4    4    0    0 -0.12570299825E+02 -0.28950647006E+02 -0.96462069468E+01  0.33003056043E+02  0.00000000000E+00 0.  1.
       12    1    4    4    0    0  0.10092859512E+03 -0.58304241570E+02 -0.49986543563E+02  0.12682515695E+03  0.00000000000E+00 0. -1.
       -5    1    5    5    0  504 -0.16080854390E+03  0.13368128771E+03 -0.20258534500E+03  0.29119235307E+03  0.47000000000E+01 0.  1.
        3    1    6    6  502    0 -0.92876556369E+01  0.56984739317E+02 -0.37836213355E+01  0.57860494750E+02  0.00000000000E+00 0. -1.
       -4    1    6    6    0  502  0.19161346963E+01  0.23800699023E+02 -0.79139678024E+02  0.82663374501E+02  0.00000000000E+00 0.  1.
</event>
<event>
12   0  0.1544783E-01  0.1862031E+03  0.7957747E-01  0.1167758E+00
       21   -1    0    0  504  503  0.00000000000E+00  0.00000000000E+00  0.29470529721E+03  0.29470529721E+03  0.00000000000E+00 0. -1.
       21   -1    0    0  501  504  0.00000000000E+00  0.00000000000E+00 -0.13514758973E+03  0.13514758973E+03  0.00000000000E+00 0. -1.
        6    2    1    2  501    0  0.92942019794E+01  0.67559020614E+02  0.11607555654E+01  0.18620669489E+03  0.17326564117E+03 0.  0.
       24    2    3    3    0    0  0.36372608722E+02  0.12698580108E+02  0.54847958359E+02  0.10467563462E+03  0.80401923768E+02 0.  0.
       -6    2    1    2    0  503 -0.92942019794E+01 -0.67559020614E+02  0.15839695191E+03  0.24364619205E+03  0.17211411642E+03 0.  0.
      -24    2    5    5    0    0 -0.24206537807E+02 -0.10574442040E+03  0.11133368320E+03  0.18105590704E+03  0.92834333853E+02 0.  0.
        5    1    3    3  501    0 -0.27078406743E+02  0.54860440506E+02 -0.53687202793E+02  0.81531060266E+02  0.47000000000E+01 0. -1.
      -11    1    4    4    0    0  0.62022743951E+02  0.53046626390E+01  0.41640015407E+02  0.74892263258E+02  0.00000000000E+00 0.  1.
       12    1    4    4    0    0 -0.25650135229E+02  0.73939174687E+01  0.13207942952E+02  0.29783371364E+02  0.00000000000E+00 0. -1.
       -5    1    5    5    0  503  0.14912335828E+02  0.38185399783E+02  0.47063268708E+02  0.62590285012E+02  0.47000000000E+01 0.  1.
        1    1    6    6  502    0 -0.40603920789E+02 -0.44001176937E+02  0.99441483477E+02  0.11607493524E+03  0.00000000000E+00 0. -1.
       -2    1    6    6    0  502  0.16397382982E+02 -0.61743243460E+02  0.11892199720E+02  0.64980971798E+02  0.00000000000E+00 0.  1.
</event>
<event>
12   0  0.1544783E-01  0.1825455E+03  0.7957747E-01  0.1171068E+00
       21   -1    0    0  504  503  0.00000000000E+00  0.00000000000E+00  0.77515614770E+02  0.77515614770E+02  0.00000000000E+00 0.  1.
       21   -1    0    0  501  504  0.00000000000E+00  0.00000000000E+00 -0.42939095267E+03  0.42939095267E+03  0.00000000000E+00 0. -1.
        6    2    1    2  501    0 -0.46898950020E+02  0.95303072925E+01 -0.19655220595E+03  0.26722319903E+03  0.17459991456E+03 0.  0.
       24    2    3    3    0    0 -0.11641801947E+02  0.55033620629E+02 -0.18404014531E+03  0.20812785508E+03  0.79260318086E+02 0.  0.
       -6    2    1    2    0  503  0.46898950020E+02 -0.95303072925E+01 -0.15532313195E+03  0.23968336841E+03  0.17616044819E+03 0.  0.
      -24    2    5    5    0    0  0.23739739982E+02 -0.11340419544E+02 -0.18412690378E+03  0.20238225867E+03  0.79772686780E+02 0.  0.
        5    1    3    3  501    0 -0.35257148073E+02 -0.45503313337E+02 -0.12512060644E+02  0.59095343949E+02  0.47000000000E+01 0. -1.
      -13    1    4    4    0    0 -0.18484161912E+02  0.56290002646E+02 -0.61520181119E+02  0.85410545745E+02  0.00000000000E+00 0.  1.
       14    1    4    4    0    0  0.68423599646E+01 -0.12563820167E+01 -0.12251996419E+03  0.12271730934E+03  0.00000000000E+00 0. -1.
       -5    1    5    5    0  503  0.23159210039E+02  0.18101122517E+01  0.28803771838E+02  0.37301109743E+02  0.47000000000E+01 0.  1.
        3    1    6    6  502    0  0.22357647905E+02 -0.43247049459E+02 -0.81842557001E+02  0.95228020263E+02  0.00000000000E+00 0. -1.
       -4    1    6    6    0  502  0.13820920766E+01  0.31906629915E+02 -0.10228434678E+03  0.10715423840E+03  0.00000000000E+00 0.  1.
</event>
<event>
12   0  0.1544783E-01  0.2052433E+03  0.7957747E-01  0.1151780E+00
        2   -1    0    0  502    0  0.00000000000E+00  0.00000000000E+00  0.40436573661E+03  0.40436573661E+03  0.00000000000E+00 0.  1.
       -2   -1    0    0    0  501  0.00000000000E+00  0.00000000000E+00 -0.15022740843E+03  0.15022740843E+03  0.00000000000E+00 0. -1.
        6    2    1    2  502    0  0.86253042426E+02  0.66290019775E+02 -0.26125886676E+02  0.20766958271E+03  0.17495753650E+03 0.  0.
       24    2    3    3    0    0  0.26722831700E+02  0.10658374073E+03 -0.16444287365E+02  0.13498359161E+03  0.76654757807E+02 0.  0.
       -6    2    1    2    0  501 -0.86253042426E+02 -0.66290019775E+02  0.28026421485E+03  0.34692356233E+03  0.17312993365E+03 0.  0.
      -24    2    5    5    0    0 -0.11007070126E+03 -0.90861080089E+02  0.19497673389E+03  0.25490692098E+03  0.81180764061E+02 0.  0.
        5    1    3    3  502    0  0.59530210725E+02 -0.40293720952E+02 -0.96815993101E+01  0.72685991101E+02  0.47000000000E+01 0. -1.
        2    1    4    4  503    0 -0.23467865716E+02  0.60724423599E+02 -0.15811408402E+02  0.66994007033E+02  0.00000000000E+00 0. -1.
       -1    1    4    4    0  503  0.50190697416E+02  0.45859317128E+02 -0.63287896294E+00  0.67989584572E+02  0.00000000000E+00 0.  1.
       -5    1    5    5    0  501  0.23817658832E+02  0.24571060314E+02  0.85287480960E+02  0.92016641352E+02  0.47000000000E+01 0.  1.
       13    1    6    6    0    0 -0.64088793434E+02 -0.71095744016E+02  0.65203179382E+02  0.11581637562E+03  0.00000000000E+00 0. -1.
      -14    1    6    6    0    0 -0.45981907823E+02 -0.19765336073E+02  0.12977355451E+03  0.13909054535E+03  0.00000000000E+00 0.  1.
</event>
<event>
12   0  0.1544783E-01  0.2329900E+03  0.7957747E-01  0.1131614E+00
       21   -1    0    0  504  503  0.00000000000E+00  0.00000000000E+00  0.18251355824E+03  0.18251355824E+03  0.00000000000E+00 0.  1.
       21   -1    0    0  501  504  0.00000000000E+00  0.00000000000E+00 -0.30880357607E+03  0.30880357607E+03  0.00000000000E+00 0.  1.
        6    2    1    2  501    0  0.15416704571E+03 -0.80754914328E+01 -0.11220291934E+03  0.25790168816E+03  0.17346784746E+03 0.  0.
       24    2    3    3    0    0  0.55376408807E+02 -0.62691230201E+02 -0.75434097461E+02  0.13908878851E+03  0.81600557793E+02 0.  0.
       -6    2    1    2    0  503 -0.15416704571E+03  0.80754914328E+01 -0.14087098487E+02  0.23341544615E+03  0.17450396160E+03 0.  0.
      -24    2    5    5    0    0 -0.42850477689E+02 -0.15265707221E+01  0.50521165887E+02  0.10426477546E+03  0.80500070458E+02 0.  0.
        5    1    3    3  501    0  0.98790636906E+02  0.54615738768E+02 -0.36768821878E+02  0.11881289965E+03  0.47000000000E+01 0. -1.
        4    1    4    4  502    0  0.42815342920E+02  0.41104829802E+01 -0.51330604752E+02  0.66969251481E+02  0.00000000000E+00 0. -1.
       -3    1    4    4    0  502  0.12561065887E+02 -0.66801713181E+02 -0.24103492710E+02  0.72119537027E+02  0.00000000000E+00 0.  1.
       -5    1    5    5    0  503 -0.11131656802E+03  0.96020621549E+01 -0.64608264374E+02  0.12915067069E+03  0.47000000000E+01 0.  1.
       13    1    6    6    0    0 -0.31597422132E+02 -0.39510659903E+02  0.20624758190E+02  0.54633963629E+02  0.00000000000E+00 0. -1.
      -14    1    6    6    0    0 -0.11253055557E+02  0.37984089181E+02  0.29896407697E+02  0.49630811836E+02  0.00000000000E+00 0.  1.
</event>
<event>
12   0  0.1544783E-01  0.1940001E+03  0.7957747E-01  0.1160972E+00
       21   -1    0    0  501  503  0.00000000000E+00  0.00000000000E+00  0.40898617271E+03  0.40898617271E+03  0.00000000000E+00 0. -1.
       21   -1    0    0  503  504  0.00000000000E+00  0.00000000000E+00 -0.16262847886E+03  0.16262847886E+03  0.00000000000E+00 0. -1.
        6    2    1    2  501    0  0.30099404587E+02 -0.79914118750E+02  0.31209593954E+03  0.36677918088E+03  0.17271610092E+03 0.  0.
       24    2    3    3    0    0  0.34044052679E+02 -0.10666199662E+03  0.31120951553E+03  0.33932221516E+03  0.75844736781E+02 0.  0.
       -6    2    1    2    0  504 -0.30099404587E+02  0.79914118750E+02 -0.65738245678E+02  0.20483547069E+03  0.17419475473E+03 0.  0.
      -24    2    5    5    0    0  0.46146467380E+02  0.62206725635E+02 -0.47860614740E+02  0.12440733848E+03  0.84778383204E+02 0.  0.
        5    1    3    3  501    0 -0.39446480915E+01  0.26747877870E+02  0.88642400815E+00  0.27456965722E+02  0.47000000000E+01 0. -1.
        2    1    4    4  502    0  0.25436173961E+02 -0.65654201122E+02  0.27522909333E+03  0.28409246186E+03  0.00000000000E+00 0. -1.
       -1    1    4    4    0  502  0.86078787181E+01 -0.41007795498E+02  0.35980422202E+02  0.55229753299E+02  0.00000000000E+00 0.  1.
       -5    1    5    5    0  504 -0.76245871968E+02  0.17707393115E+02 -0.17877630938E+02  0.80428132211E+02  0.47000000000E+01 0.  1.
       11    1    6    6    0    0 -0.21950679453E+02  0.17279056774E+02 -0.29805918444E+02  0.40850837271E+02  0.00000000000E+00 0. -1.
      -12    1    6    6    0    0  0.68097146833E+02  0.44927668861E+02 -0.18054696296E+02  0.83556501210E+02  0.00000000000E+00 0.  1.
</event>
<event>
12   0  0.1544783E-01  0.1732327E+03  0.7957747E-01  0.1179897E+00
       21   -1    0    0  501  503  0.00000000000E+00  0.00000000000E+00  0.19405831933E+03  0.19405831933E+03  0.00000000000E+00 0. -1.
       21   -1    0    0  503  504  0.00000000000E+00  0.00000000000E+00 -0.17857938770E+03  0.17857938770E+03  0.00000000000E+00 0. -1.
        6    2    1    2  501    0 -0.30233198018E+01 -0.34588634260E+01  0.77740284239E+02  0.18855610688E+03  0.17172288563E+03 0.  0.
       24    2    3    3    0    0 -0.24999580504E+02  0.56941984590E+02  0.72504355213E+02  0.12389759292E+03  0.78907308734E+02 0.  0.
       -6    2    1    2    0  504  0.30233198018E+01  0.34588634260E+01 -0.62261352606E+02  0.18408160014E+03  0.17317175082E+03 0.  0.
      -24    2    5    5    0    0 -0.60455846824E+02  0.26438017275E+02 -0.23770150355E+02  0.10622719270E+03  0.79782944595E+02 0.  0.
        5    1    3    3  501    0  0.21976260702E+02 -0.60400848016E+02  0.52359290263E+01  0.64658513966E+02  0.47000000000E+01 0. -1.
      -11    1    4    4    0    0 -0.43294922161E+02  0.24640771633E+02  0.94163652351E+01  0.50697986606E+02  0.00000000000E+00 0.  1.
       12    1    4    4    0    0  0.18295341657E+02  0.32301212956E+02  0.63087989978E+02  0.73199606312E+02  0.00000000000E+00 0. -1.
       -5    1    5    5    0  504  0.63479166626E+02 -0.22979153849E+02 -0.38491202252E+02  0.77854407440E+02  0.47000000000E+01 0.  1.
        1    1    6    6  502    0 -0.52448110112E+02 -0.16246615375E+02 -0.29651211592E+02  0.62401531347E+02  0.00000000000E+00 0. -1.
       -2    1    6    6    0  502 -0.80077367116E+01  0.42684632650E+02  0.58810612375E+01  0.43825661353E+02  0.00000000000E+00 0.  1.
</event>
<event>
12   0  0.1544783E-01  0.2204238E+03  0.7957747E-01  0.1140344E+00
       21   -1    0    0  501  503  0.00000000000E+00  0.00000000000E+00  0.15523835458E+03  0.15523835458E+03  0.00000000000E+00 0.  1.
       21   -1    0    0  503  504  0.00000000000E+00  0.00000000000E+00 -0.30961651273E+03  0.30961651273E+03  0.00000000000E+00 0.  1.
        6    2    1    2  501    0 -0.67729873988E+02  0.10996645776E+03 -0.58684365719E+02  0.22455514570E+03  0.17407240166E+03 0.  0.
       24    2    3    3    0    0 -0.10452225012E+03  0.70787537240E+02 -0.76692061952E+02  0.16767778748E+03  0.79362408292E+02 0.  0.
       -6    2    1    2    0  504  0.67729873988E+02 -0.10996645776E+03 -0.95693792434E+02  0.24029972161E+03  0.17862445698E+03 0.  0.
      -24    2    5    5    0    0  0.86476951301E+02 -0.39291435153E+02 -0.63254682371E+00  0.12027829792E+03  0.73786102019E+02 0.  0.
        5    1    3    3  501    0  0.36792376130E+02  0.39178920524E+02  0.18007696233E+02  0.56877358223E+02  0.47000000000E+01 0. -1.
        2    1    4    4  502    0 -0.12818044864E+02  0.44218169845E+02 -0.51205598796E+02  0.68859002074E+02  0.00000000000E+00 0. -1.
       -1    1    4    4    0  502 -0.91704205255E+02  0.26569367395E+02 -0.25486463156E+02  0.98818785408E+02  0.00000000000E+00 0.  1.
       -5    1    5    5    0  504 -0.18747077313E+02 -0.70675022611E+02 -0.95061245610E+02  0.12002142370E+03  0.47000000000E+01 0.  1.
       11    1    6    6    0    0  0.42994606203E+02  0.18961225924E+02  0.55868299675E+01  0.47320998723E+02  0.00000000000E+00 0. -1.
      -12    1    6    6    0    0  0.43482345098E+02 -0.58252661077E+02 -0.62193767912E+01  0.72957299192E+02  0.00000000000E+00 0.  1.
</event>
<event>
12   0  0.1544783E-01  0.1905541E+03  0.7957747E-01  0.1163927E+00
       21   -1    0    0  504  503  0.00000000000E+00  0.00000000000E+00  0.20207190569E+03  0.20207190569E+03  0.00000000000E+00 0. -1.
       21   -1    0    0  501  504  0.00000000000E+00  0.00000000000E+00 -0.29071406100E+03  0.29071406100E+03  0.00000000000E+00 0. -1.
        6    2    1    2  501    0  0.21673121036E+02 -0.76621508426E+02 -0.19914216634E+03  0.27251085129E+03  0.16811895171E+03 0.  0.
       24    2    3    3    0    0 -0.56552090491E+02 -0.58719268256E+02 -0.13577166615E+03  0.17015077989E+03  0.62219379333E+02 0.  0.
       -6    2    1    2    0  503 -0.21673121036E+02  0.76621508426E+02  0.11050001104E+03  0.22027511540E+03  0.17311930654E+03 0.  0.
      -24    2    5    5    0    0 -0.58962658728E+02  0.31052462936E+02  0.11906835188E+03  0.16058798117E+03  0.84678076845E+02 0.  0.
        5    1    3    3  501    0  0.78225211527E+02 -0.17902240170E+02 -0.63370500196E+02  0.10236007140E+03  0.47000000000E+01 0. -1.
        2    1    4    4  502    0 -0.20886322900E+02 -0.61438187666E+01 -0.17596834497E+01  0.21842194926E+02  0.00000000000E+00 0. -1.
       -1    1    4    4    0  502 -0.35665767591E+02 -0.52575449489E+02 -0.13401198270E+03  0.14830858496E+03  0.00000000000E+00 0.  1.
       -5    1    5    5    0  503  0.37289537691E+02  0.45569045490E+02 -0.85683408411E+01  0.59687134232E+02  0.47000000000E+01 0.  1.
       13    1    6    6    0    0 -0.63571670599E+02  0.85600509148E+01  0.34248999857E+02  0.72716062638E+02  0.00000000000E+00 0. -1.
      -14    1    6    6    0    0  0.46090118711E+01  0.22492412021E+02  0.84819352021E+02  0.87871918530E+02  0.00000000000E+00 0.  1.
</event>
<event>
12   0  0.1544783E-01  0.1995325E+03  0.7957747E-01  0.1156366E+00
       21   -1    0    0  504  503  0.00000000000E+00  0.00000000000E+00  0.10495160221E+03  0.10495160221E+03  0.00000000000E+00 0.  1.
       21   -1    0    0  501  504  0.00000000000E+00  0.00000000000E+00 -0.43796831643E+03  0.43796831643E+03  0.00000000000E+00 0. -1.
        6    2    1    2  501    0 -0.63111501699E+02  0.75423937070E+02 -0.26606650944E+03  0.33257269102E+03  0.17361271681E+03 0.  0.
       24    2    3    3    0    0 -0.32922893771E+02 -0.26887146047E+02 -0.97148475845E+02  0.13273700389E+03  0.79840154601E+02 0.  0.
       -6    2    1    2    0  503  0.63111501699E+02 -0.75423937070E+02 -0.66950204773E+02  0.21034722761E+03  0.17346986573E+03 0.  0.
      -24    2    5    5    0    0  0.22004425285E+02 -0.82849443638E+02  0.10896263653E+02  0.12187637068E+03  0.85947054204E+02 0.  0.
        5    1    3    3  501    0 -0.30188607928E+02  0.10231108312E+03 -0.16891803360E+03  0.19983568713E+03  0.47000000000E+01 0. -1.
      -13    1    4    4    0    0  0.18997397949E+02 -0.16420756963E+02 -0.67542815978E+02  0.72059519693E+02  0.00000000000E+00 0.  1.
       14    1    4    4    0    0 -0.51920291720E+02 -0.10466389084E+02 -0.29605659867E+02  0.60677484200E+02  0.00000000000E+00 0. -1.
       -5    1    5    5    0  503  0.41107076414E+02  0.74255065675E+01 -0.77846468426E+02  0.88470856928E+02  0.47000000000E+01 0.  1.
        1    1    6    6  502    0  0.23094255019E+02 -0.19201248662E+02 -0.32946690983E+02  0.44581577045E+02  0.00000000000E+00 0. -1.
       -2    1    6    6    0  502 -0.10898297341E+01 -0.63648194976E+02  0.43842954636E+02  0.77294793639E+02  0.00000000000E+00 0.  1.
</event>
<event>
12   0  0.1544783E-01  0.1935804E+03  0.7957747E-01  0.1161329E+00
       21   -1    0    0  504  503  0.00000000000E+00  0.00000000000E+00  0.29810098154E+03  0.29810098154E+03  0.00000000000E+00 0.  1.
       21   -1    0    0  501  504  0.00000000000E+00  0.00000000000E+00 -0.24815738518E+03  0.24815738518E+03  0.00000000000E+00 0.  1.
        6    2    1    2  501    0  0.39520168932E+02  0.76091682558E+02 -0.16700506598E+03  0.25566392861E+03  0.17355565223E+03 0.  0.
       24    2    3    3    0    0 -0.47683272465E+01  0.46934277857E+02 -0.17902988338E+03  0.20109002114E+03  0.78485247519E+02 0.  0.
       -6    2    1    2    0  503 -0.39520168932E+02 -0.76091682558E+02  0.21694866234E+03  0.29059443811E+03  0.17328190172E+03 0.  0.
      -24    2    5    5    0    0  0.11523639386E+02 -0.74821919131E+02  0.61966351224E+02  0.12735017504E+03  0.81529899741E+02 0.  0.
        5    1    3    3  501    0  0.44288496178E+02  0.29157404701E+02  0.12024817398E+02  0.54573907465E+02  0.47000000000E+01 0. -1.
      -13    1    4    4    0    0  0.27128946130E+02  0.18723352494E+02 -0.13826643524E+03  0.14214130562E+03  0.00000000000E+00 0.  1.
       14    1    4    4    0    0 -0.31897273376E+02  0.28210925363E+02 -0.40763448135E+02  0.58948715529E+02  0.00000000000E+00 0. -1.
       -5    1    5    5    0  503 -0.51043808318E+02 -0.12697634272E+01  0.15498231111E+03  0.16324426307E+03  0.47000000000E+01 0.  1.
        1    1    6    6  502    0 -0.14077122449E+02 -0.72350915971E+02  0.17147712288E+02  0.75676049414E+02  0.00000000000E+00 0. -1.
       -2    1    6    6    0  502  0.25600761836E+02 -0.24710031601E+01  0.44818638936E+02  0.51674125627E+02  0.00000000000E+00 0.  1.
</event>
<event>
12   0  0.1544783E-01  0.3199411E+03  0.7957747E-01  0.1084140E+00
       21   -1    0    0  504  503  0.00000000000E+00  0.00000000000E+00  0.60022875148E+03  0.60022875148E+03  0.00000000000E+00 0. -1.
       21   -1    0    0  501  504  0.00000000000E+00  0.00000000000E+00 -0.21239104188E+03  0.21239104188E+03  0.00000000000E+00 0.  1.
        6    2    1    2  501    0 -0.26766643161E+03  0.14488603383E+02  0.11618734609E+02  0.31875438135E+03  0.17208754283E+03 0.  0.
       24    2    3    3    0    0 -0.18926175414E+03  0.30944671133E+02 -0.57649193250E+02  0.21274385619E+03  0.71825723898E+02 0.  0.
       -6    2    1    2    0  503  0.26766643161E+03 -0.14488603383E+02  0.37621897499E+03  0.49386541201E+03  0.17466278883E+03 0.  0.
      -24    2    5    5    0    0  0.14100265361E+03  0.48171000332E+02  0.25926063895E+03  0.31036805246E+03  0.83126743460E+02 0.  0.
        5    1    3    3  501    0 -0.78404677472E+02 -0.16456067750E+02  0.69267927859E+02  0.10601052516E+03  0.47000000000E+01 0. -1.
        2    1    4    4  502    0 -0.17004026775E+03  0.25085096824E+01 -0.42903677560E+02  0.17538731660E+03  0.00000000000E+00 0. -1.
       -1    1    4    4    0  502 -0.19221486391E+02  0.28436161451E+02 -0.14745515690E+02  0.37356539590E+02  0.00000000000E+00 0.  1.
       -5    1    5    5    0  503  0.12666377800E+03 -0.62659603716E+02  0.11695833604E+03  0.18349735955E+03  0.47000000000E+01 0.  1.
       11    1    6    6    0    0  0.14714088385E+03  0.50505219931E+02  0.26075297804E+03  0.30363354969E+03  0.00000000000E+00 0. -1.
      -12    1    6    6    0    0 -0.61382302339E+01 -0.23342195987E+01 -0.14923390932E+01  0.67345027662E+01  0.00000000000E+00 0.  1.
</event>
<event>
12   0  0.1544783E-01  0.1966734E+03  0.7957747E-01  0.1158726E+00
       -2   -1    0    0    0  501  0.00000000000E+00  0.00000000000E+00  0.87068549527E+02  0.87068549527E+02  0.00000000000E+00 0. -1.
        2   -1    0    0  502    0  0.00000000000E+00  0.00000000000E+00 -0.59194109048E+03  0.59194109048E+03  0.00000000000E+00 0.  1.
        6    2    1    2  502    0  0.22074209089E+02  0.90350455023E+02 -0.42180048661E+03  0.46530347226E+03  0.17303524314E+03 0.  0.
       24    2    3    3    0    0  0.59618845160E+02  0.11000377421E+03 -0.36569355063E+03  0.39483411071E+03  0.80665760823E+02 0.  0.
       -6    2    1    2    0  501 -0.22074209089E+02 -0.90350455023E+02 -0.83072054349E+02  0.21370616775E+03  0.17354793139E+03 0.  0.
      -24    2    5    5    0    0 -0.77076610618E+02 -0.34695048880E+02 -0.27718698012E+02  0.11774329751E+03  0.77140181278E+02 0.  0.
        5    1    3    3  502    0 -0.37544636071E+02 -0.19653319185E+02 -0.56106935972E+02  0.70469361547E+02  0.47000000000E+01 0. -1.
      -13    1    4    4    0    0  0.71037060446E+01  0.93554734389E+02 -0.23316808352E+03  0.25133703694E+03  0.00000000000E+00 0.  1.
       14    1    4    4    0    0  0.52515139115E+02  0.16449039819E+02 -0.13252546712E+03  0.14349707377E+03  0.00000000000E+00 0. -1.
       -5    1    5    5    0  501  0.55002401528E+02 -0.55655406144E+02 -0.55353356337E+02  0.95962870240E+02  0.47000000000E+01 0.  1.
        3    1    6    6  503    0 -0.37232279148E+01  0.21601564512E+02 -0.39815522983E+01  0.22278751629E+02  0.00000000000E+00 0. -1.
       -4    1    6    6    0  503 -0.73353382703E+02 -0.56296613391E+02 -0.23737145714E+02  0.95464545879E+02  0.00000000000E+00 0.  1.
</event>
<event>
12   0  0.1544783E-01  0.2164831E+03  0.7957747E-01  0.1143214E+00
       21   -1    0    0  504  503  0.00000000000E+00  0.00000000000E+00  0.82291120194E+02  0.82291120194E+02  0.00000000000E+00 0. -1.
       21   -1    0    0  501  504  0.00000000000E+00  0.00000000000E+00 -0.59169914218E+03  0.59169914218E+03  0.00000000000E+00 0. -1.
        6    2    1    2  501    0 -0.49979853382E+02  0.11648500522E+03 -0.17917132505E+03  0.27912165460E+03  0.17245228952E+03 0.  0.
       24    2    3    3    0    0  0.55554272141E+01  0.68621324943E+01 -0.28934857084E+02  0.84971125571E+02  0.79403492319E+02 0.  0.
       -6    2    1    2    0  503  0.49979853382E+02 -0.11648500522E+03 -0.33023669693E+03  0.39486860777E+03  0.17549415722E+03 0.  0.
      -24    2    5    5    0    0  0.14793651550E+02 -0.14638986564E+03 -0.23307632279E+03  0.28719039372E+03  0.80652991975E+02 0.  0.
        5    1    3    3  501    0 -0.55535280596E+02  0.10962287272E+03 -0.15023646797E+03  0.19415052903E+03  0.47000000000E+01 0. -1.
      -11    1    4    4    0    0 -0.23151797730E+02  0.29712582138E+02  0.90397357149E+00  0.37678381648E+02  0.00000000000E+00 0.  1.
       12    1    4    4    0    0  0.28707224944E+02 -0.22850449643E+02 -0.29838830656E+02  0.47292743923E+02  0.00000000000E+00 0. -1.
       -5    1    5    5    0  503  0.35186201832E+02  0.29904860427E+02 -0.97160374141E+02  0.10767821404E+03  0.47000000000E+01 0.  1.
        3    1    6    6  502    0 -0.11499700979E+02 -0.39114168576E+02 -0.16318700280E+02  0.43914249223E+02  0.00000000000E+00 0. -1.
       -4    1    6    6    0  502  0.26293352529E+02 -0.10727569707E+03 -0.21675762251E+03  0.24327614450E+03  0.00000000000E+00 0.  1.
</event>
<event>
12   0  0.1544783E-01  0.2132732E+03  0.7957747E-01  0.1145601E+00
       21   -1    0    0  504  503  0.00000000000E+00  0.00000000000E+00  0.39835808811E+03  0.39835808811E+03  0.00000000000E+00 0.  1.
       21   -1    0    0  501  504  0.00000000000E+00  0.00000000000E+00 -0.11560796577E+03  0.11560796577E+03  0.00000000000E+00 0.  1.
        6    2    1    2  501    0 -0.59900283075E+02 -0.10691553460E+03  0.10171855224E+03  0.23421993260E+03  0.17173624401E+03 0.  0.
       24    2    3    3    0    0 -0.76568908028E+02 -0.78055149979E+02  0.11298160638E+02  0.13773831738E+03  0.82998744126E+02 0.  0.
       -6    2    1    2    0  503  0.59900283075E+02  0.10691553460E+03  0.18103157009E+03  0.27974612128E+03  0.17454651973E+03 0.  0.
      -24    2    5    5    0    0 -0.32483353994E+01  0.10450128335E+03  0.17047620020E+03  0.21550374852E+03  0.80303554625E+02 0.  0.
        5    1    3    3  501    0  0.16668624953E+02 -0.28860384617E+02  0.90420391602E+02  0.96481615220E+02  0.47000000000E+01 0. -1.
        4    1    4    4  502    0 -0.67104714552E+02 -0.36552741976E+02  0.40144111111E+02  0.86317410283E+02  0.00000000000E+00 0. -1.
       -3    1    4    4    0  502 -0.94641934767E+01 -0.41502408003E+02 -0.28845950473E+02  0.51420907099E+02  0.00000000000E+00 0.  1.
       -5    1    5    5    0  503  0.63148618475E+02  0.24142512455E+01  0.10555369891E+02  0.64242372761E+02  0.47000000000E+01 0.  1.
       13    1    6    6    0    0  0.60183657160E+01 -0.12790605470E+02  0.16700797176E+02  0.21880058055E+02  0.00000000000E+00 0. -1.
      -14    1    6    6    0    0 -0.92667011154E+01  0.11729188882E+03  0.15377540303E+03  0.19362369046E+03  0.00000000000E+00 0.  1.
</event>
<event>
12   0  0.1544783E-01  0.1818463E+03  0.7957747E-01  0.1171711E+00
       21   -1    0    0  501  503  0.00000000000E+00  0.00000000000E+00  0.14439836873E+03  0.14439836873E+03  0.00000000000E+00 0.  1.
       21   -1    0    0  503  504  0.00000000000E+00  0.00000000000E+00 -0.30290383386E+03  0.30290383386E+03  0.00000000000E+00 0.  1.
        6    2    1    2  501    0  0.33643593255E+02 -0.44390672314E+02  0.36710445523E+02  0.18551479620E+03  0.17310592030E+03 0.  0.
       24    2    3    3    0    0  0.69547292102E+02 -0.45402171289E+02  0.72422273015E+02  0.13464709186E+03  0.77373578969E+02 0.  0.
       -6    2    1    2    0  504 -0.33643593255E+02  0.44390672314E+02 -0.19521591065E+03  0.26178740640E+03  0.16529056604E+03 0.  0.
      -24    2    5    5    0    0 -0.65408898129E+02 -0.13438301855E+02 -0.13525501055E+03  0.17250905299E+03  0.83705098843E+02 0.  0.
        5    1    3    3  501    0 -0.35903698847E+02  0.10114989745E+01 -0.35711827493E+02  0.50867704331E+02  0.47000000000E+01 0. -1.
      -11    1    4    4    0    0  0.48668383368E+02  0.11401001932E+02  0.48266229575E+02  0.69485417910E+02  0.00000000000E+00 0.  1.
       12    1    4    4    0    0  0.20878908734E+02 -0.56803173221E+02  0.24156043440E+02  0.65161673955E+02  0.00000000000E+00 0. -1.
       -5    1    5    5    0  504  0.31765304874E+02  0.57828974169E+02 -0.59960900101E+02  0.89278353413E+02  0.47000000000E+01 0.  1.
        1    1    6    6  502    0 -0.10601015673E+02 -0.42283887687E+02 -0.41807452574E+02  0.60400097532E+02  0.00000000000E+00 0. -1.
       -2    1    6    6    0  502 -0.54807882456E+02  0.28845585832E+02 -0.93447557976E+02  0.11210895545E+03  0.00000000000E+00 0.  1.
</event>
<event>
12   0  0.1544783E-01  0.1751866E+03  0.7957747E-01  0.1177995E+00
       21   -1    0    0  501  503  0.00000000000E+00  0.00000000000E+00  0.60517010226E+02  0.60517010226E+02  0.00000000000E+00 0. -1.
       21   -1    0    0  503  504  0.00000000000E+00  0.00000000000E+00 -0.68410510719E+03  0.68410510719E+03  0.00000000000E+00 0. -1.
        6    2    1    2  501    0  0.22125128056E+02 -0.13538249546E+02 -0.12118780609E+03  0.21301837648E+03  0.17325570374E+03 0.  0.
       24    2    3    3    0    0  0.32005420784E+02  0.20256867847E+02 -0.14579032963E+03  0.16980837407E+03  0.78392448843E+02 0.  0.
       -6    2    1    2    0  504 -0.22125128056E+02  0.13538249546E+02 -0.50240029087E+03  0.53160374094E+03  0.17182456058E+03 0.  0.
      -24    2    5    5    0    0 -0.47741157776E+02 -0.29689120406E+02 -0.44349012230E+03  0.45403258359E+03  0.79381587049E+02 0.  0.
        5    1    3    3  501    0 -0.98802927278E+01 -0.33795117393E+02  0.24602523537E+02  0.43210002412E+02  0.47000000000E+01 0. -1.
      -13    1    4    4    0    0 -0.14947332792E+02  0.31757009890E+02 -0.38310432345E+02  0.51957864287E+02  0.00000000000E+00 0.  1.
       14    1    4    4    0    0  0.46952753576E+02 -0.11500142043E+02 -0.10747989728E+03  0.11785050978E+03  0.00000000000E+00 0. -1.
       -5    1    5    5    0  504  0.25616029720E+02  0.43227369952E+02 -0.58910168568E+02  0.77571157348E+02  0.47000000000E+01 0.  1.
        1    1    6    6  502    0 -0.30913872585E+02  0.21860709382E+02 -0.11434848278E+03  0.12045386522E+03  0.00000000000E+00 0. -1.
       -2    1    6    6    0  502 -0.16827285191E+02 -0.51549829788E+02 -0.32914163953E+03  0.33357871837E+03  0.00000000000E+00 0.  1.
</event>
<event>
12   0  0.1544783E-01  0.2407001E+03  0.7957747E-01  0.1126550E+00
        2   -1    0    0  502    0  0.00000000000E+00  0.00000000000E+00  0.20784878811E+03  0.20784878811E+03  0.00000000000E+00 0.  1.
       -2   -1    0    0    0  501  0.00000000000E+00  0.00000000000E+00 -0.27878379693E+03  0.27878379693E+03  0.00000000000E+00 0. -1.
        6    2    1    2  502    0 -0.16669321784E+03  0.21015190098E+01 -0.38388971104E+02  0.24377634232E+03  0.17367252724E+03 0.  0.
       24    2    3    3    0    0 -0.64148492911E+02  0.25196761268E+02 -0.80029815564E+02  0.13061777767E+03  0.76852628735E+02 0.  0.
       -6    2    1    2    0  501  0.16669321784E+03 -0.21015190098E+01 -0.32546037721E+02  0.24285624272E+03  0.17357668276E+03 0.  0.
      -24    2    5    5    0    0  0.12747912373E+03  0.63873829823E+02 -0.33328109801E+02  0.16595895104E+03  0.78107729471E+02 0.  0.
        5    1    3    3  502    0 -0.10254472493E+03 -0.23095242259E+02  0.41640844460E+02  0.11315856465E+03  0.47000000000E+01 0. -1.
        2    1    4    4  503    0 -0.73134855798E+02 -0.33948775840E+01 -0.55022544189E+02  0.91584456626E+02  0.00000000000E+00 0. -1.
       -1    1    4    4    0  503  0.89863628872E+01  0.28591638852E+02 -0.25007271375E+02  0.39033321046E+02  0.00000000000E+00 0.  1.
       -5    1    5    5    0  501  0.39214094108E+02 -0.65975348833E+02  0.78207207924E+00  0.76897291676E+02  0.47000000000E+01 0.  1.
       11    1    6    6    0    0  0.10798948143E+02  0.22073728959E+02 -0.34079356294E+02  0.42015108194E+02  0.00000000000E+00 0. -1.
      -12    1    6    6    0    0  0.11668017559E+03  0.41800100864E+02  0.75124649313E+00  0.12394384285E+03  0.00000000000E+00 0.  1.
</event>
<event>
12   0  0.1544783E-01  0.1863669E+03  0.7957747E-01  0.1167612E+00
       21   -1    0    0  501  503  0.00000000000E+00  0.00000000000E+00  0.13949786374E+03  0.13949786374E+03  0.00000000000E+00 0. -1.
       21   -1    0    0  503  504  0.00000000000E+00  0.00000000000E+00 -0.27439843528E+03  0.27439843528E+03  0.00000000000E+00 0. -1.
        6    2    1    2  501    0  0.68492943356E+02 -0.83992790618E+01  0.43255272907E+00  0.18357547386E+03  0.17011154083E+03 0.  0.
       24    2    3    3    0    0  0.45382793823E+02  0.49280341445E+02 -0.37522059467E+02  0.11061205686E+03  0.79617662287E+02 0.  0.
       -6    2    1    2    0  504 -0.68492943356E+02  0.83992790618E+01 -0.13533312427E+03  0.23032082516E+03  0.17312075785E+03 0.  0.
      -24    2    5    5    0    0 -0.10044745002E+03 -0.12672630431E+02 -0.14116727635E+03  0.19131770738E+03  0.80149731556E+02 0.  0.
        5    1    3    3  501    0  0.23110149533E+02 -0.57679620507E+02  0.37954612196E+02  0.72963416999E+02  0.47000000000E+01 0. -1.
      -11    1    4    4    0    0  0.28234641737E+02 -0.17145599916E+02 -0.23633609079E+02  0.40616672299E+02  0.00000000000E+00 0.  1.
       12    1    4    4    0    0  0.17148152086E+02  0.66425941361E+02 -0.13888450388E+02  0.69995384561E+02  0.00000000000E+00 0. -1.
       -5    1    5    5    0  504  0.31954506666E+02  0.21071909493E+02  0.58341520784E+01  0.39003117779E+02  0.47000000000E+01 0.  1.
        3    1    6    6  502    0 -0.27339498559E+02 -0.50010077082E+01  0.44984359499E+01  0.28154825262E+02  0.00000000000E+00 0. -1.
       -4    1    6    6    0  502 -0.73107951464E+02 -0.76716227231E+01 -0.14566571230E+03  0.16316288212E+03  0.00000000000E+00 0.  1.
</event>
<event>
12   0  0.1544783E-01  0.3251893E+03  0.7957747E-01  0.1081811E+00
       21   -1    0    0  504  503  0.00000000000E+00  0.00000000000E+00  0.64070111833E+03  0.64070111833E+03  0.00000000000E+00 0.  1.
       21   -1    0    0  501  504  0.00000000000E+00  0.00000000000E+00 -0.29248898455E+03  0.29248898455E+03  0.00000000000E+00 0.  1.
        6    2    1    2  501    0 -0.27396524809E+03  0.32585359016E+02 -0.13506911361E+03  0.35068789108E+03  0.16917319147E+03 0.  0.
       24    2    3    3    0    0 -0.22413862282E+03  0.89590885626E+01 -0.16280900250E+03  0.28878082624E+03  0.81050643442E+02 0.  0.
       -6    2    1    2    0  503  0.27396524809E+03 -0.32585359016E+02  0.48328124739E+03  0.58250221181E+03  0.17213163538E+03 0.  0.
      -24    2    5    5    0    0  0.20344396819E+03 -0.73347533412E+02  0.41983844472E+03  0.47914900678E+03  0.80932948658E+02 0.  0.
        5    1    3    3  501    0 -0.49826625276E+02  0.23626270453E+02  0.27739888883E+02  0.61907064840E+02  0.47000000000E+01 0. -1.
        2    1    4    4  502    0 -0.11551377666E+03 -0.17134489143E+02 -0.12445932669E+03  0.17066677273E+03  0.00000000000E+00 0. -1.
       -1    1    4    4    0  502 -0.10862484616E+03  0.26093577706E+02 -0.38349675812E+02  0.11811405350E+03  0.00000000000E+00 0.  1.
       -5    1    5    5    0  503  0.70521279897E+02  0.40762174396E+02  0.63442802675E+02  0.10335320504E+03  0.47000000000E+01 0.  1.
       11    1    6    6    0    0  0.15125195770E+03 -0.25939397253E+02  0.22865676968E+03  0.27537960229E+03  0.00000000000E+00 0. -1.
      -12    1    6    6    0    0  0.52192010497E+02 -0.47408136159E+02  0.19118167504E+03  0.20376940449E+03  0.00000000000E+00 0.  1.
</event>
<event>
12   0  0.1544783E-01  0.1785976E+03  0.7957747E-01  0.1174739E+00
       21   -1    0    0  501  503  0.00000000000E+00  0.00000000000E+00  0.32902461636E+03  0.32902461636E+03  0.00000000000E+00 0. -1.
       21   -1    0    0  503  504  0.00000000000E+00  0.00000000000E+00 -0.11840442751E+03  0.11840442751E+03  0.00000000000E+00 0. -1.
        6    2    1    2  501    0 -0.25239627917E+02 -0.13478955851E+02  0.20228051380E+03  0.26863685509E+03  0.17444091429E+03 0.  0.
       24    2    3    3    0    0 -0.12613124733E+02  0.58468455767E+02  0.11008704560E+03  0.15091861436E+03  0.84140473711E+02 0.  0.
       -6    2    1    2    0  504  0.25239627917E+02  0.13478955851E+02  0.83396750490E+01  0.17879218878E+03  0.17629059964E+03 0.  0.
      -24    2    5    5    0    0 -0.51686295749E+02  0.18027241202E+02  0.16080046329E+02  0.10120167403E+03  0.83586819195E+02 0.  0.
        5    1    3    3  501    0 -0.12626503184E+02 -0.71947411618E+02  0.92193468202E+02  0.11771824073E+03  0.47000000000E+01 0. -1.
      -13    1    4    4    0    0 -0.30666540250E+02  0.41186046191E+02  0.16323113503E+02  0.53881083195E+02  0.00000000000E+00 0.  1.
       14    1    4    4    0    0  0.18053415518E+02  0.17282409576E+02  0.93763932094E+02  0.97037531164E+02  0.00000000000E+00 0. -1.
       -5    1    5    5    0  504  0.76925923666E+02 -0.45482853509E+01 -0.77403712804E+01  0.77590514749E+02  0.47000000000E+01 0.  1.
        3    1    6    6  502    0 -0.26877735772E+02  0.43591823804E+02 -0.15593997226E+02  0.53533471139E+02  0.00000000000E+00 0. -1.
       -4    1    6    6    0  502 -0.24808559977E+02 -0.25564582602E+02  0.31674043555E+02  0.47668202891E+02  0.00000000000E+00 0.  1.
</event>
<event>
12   0  0.1544783E-01  0.1815027E+03  0.7957747E-01  0.1172028E+00
       21   -1    0    0  504  503  0.00000000000E+00  0.00000000000E+00  0.47050015186E+03  0.47050015186E+03  0.00000000000E+00 0.  1.
       21   -1    0    0  501  504  0.00000000000E+00  0.00000000000E+00 -0.74370277968E+02  0.74370277968E+02  0.00000000000E+00 0.  1.
        6    2    1    2  501    0 -0.51391485331E+02  0.16946216614E+02  0.26828650339E+03  0.32286331291E+03  0.17127408415E+03 0.  0.
       24    2    3    3    0    0 -0.57080807035E+02  0.66760863339E+02  0.22966598697E+03  0.25940071213E+03  0.82625858392E+02 0.  0.
       -6    2    1    2    0  503  0.51391485331E+02 -0.16946216614E+02  0.12784337049E+03  0.22200711691E+03  0.17324830030E+03 0.  0.
      -24    2    5    5    0    0  0.95525410007E+02  0.10089925058E+02  0.11460736438E+03  0.16837841078E+03  0.77392058386E+02 0.  0.
        5    1    3    3  501    0  0.56893217035E+01 -0.49814646725E+02  0.38620516424E+02  0.63462600787E+02  0.47000000000E+01 0. -1.
      -11    1    4    4    0    0 -0.37491284792E+02  0.42394701364E+01  0.15738544717E+03  0.16184482853E+03  0.00000000000E+00 0.  1.
       12    1    4    4    0    0 -0.19589522242E+02  0.62521393203E+02  0.72280539804E+02  0.97555883595E+02  0.00000000000E+00 0. -1.
       -5    1    5    5    0  503 -0.44133924676E+02 -0.27036141672E+02  0.13236006116E+02  0.53628706135E+02  0.47000000000E+01 0.  1.
        1    1    6    6  502    0  0.75785930370E+02  0.18016775556E+02  0.12293285808E+03  0.14553555936E+03  0.00000000000E+00 0. -1.
       -2    1    6    6    0  502  0.19739479637E+02 -0.79268504986E+01 -0.83254937044E+01  0.22842851411E+02  0.00000000000E+00 0.  1.
</event>
<event>
12   0  0.1544783E-01  0.2304695E+03  0.7957747E-01  0.1133317E+00
       21   -1    0    0  501  503  0.00000000000E+00  0.00000000000E+00  0.10919763470E+03  0.10919763470E+03  0.00000000000E+00 0. -1.
       21   -1    0    0  503  504  0.00000000000E+00  0.00000000000E+00 -0.52433529282E+03  0.52433529282E+03  0.00000000000E+00 0. -1.
        6    2    1    2  501    0 -0.89212825062E+02  0.12045526533E+03 -0.12030590469E+03  0.25998019929E+03  0.17506511423E+03 0.  0.
       24    2    3    3    0    0 -0.73892003354E+02  0.35642831870E+02 -0.12905463093E+03  0.17322475763E+03  0.81371243502E+02 0.  0.
       -6    2    1    2    0  504  0.89212825062E+02 -0.12045526533E+03 -0.29483175344E+03  0.37355272823E+03  0.17363029353E+03 0.  0.
      -24    2    5    5    0    0  0.61063967468E+02 -0.87840470276E+02 -0.84439697275E+02  0.15874353304E+03  0.81392201507E+02 0.  0.
        5    1    3    3  501    0 -0.15320821709E+02  0.84812433455E+02  0.87487262391E+01  0.86755441658E+02  0.47000000000E+01 0. -1.
      -13    1    4    4    0    0 -0.39498507657E+02  0.34001612138E+02 -0.12863239798E+03  0.13878953687E+03  0.00000000000E+00 0.  1.
       14    1    4    4    0    0 -0.34393495696E+02  0.16412197323E+01 -0.42223295464E+00  0.34435220764E+02  0.00000000000E+00 0. -1.
       -5    1    5    5    0  504  0.28148857594E+02 -0.32614795050E+02 -0.21039205616E+03  0.21480919518E+03  0.47000000000E+01 0.  1.
        1    1    6    6  502    0  0.44611497975E+02 -0.10198403992E+03 -0.61520040871E+02  0.12718351143E+03  0.00000000000E+00 0. -1.
       -2    1    6    6    0  502  0.16452469493E+02  0.14143569645E+02 -0.22919656404E+02  0.31560021617E+02  0.00000000000E+00 0.  1.
</event>
<event>
12   0  0.1544783E-01  0.3698957E+03  0.7957747E-01  0.1063724E+00
       21   -1    0    0  504  503  0.00000000000E+00  0.00000000000E+00  0.40836013416E+03  0.40836013416E+03  0.00000000000E+00 0. -1.
       21   -1    0    0  501  504  0.00000000000E+00  0.00000000000E+00 -0.34515099198E+03  0.34515099198E+03  0.00000000000E+00 0. -1.
        6    2    1    2  501    0 -0.11177516342E+02  0.32575196021E+03 -0.36785819340E+02  0.37172038525E+03  0.17488159380E+03 0.  0.
       24    2    3    3    0    0 -0.14090099649E+02  0.28149700409E+03  0.25477099924E+02  0.29513223082E+03  0.83754742148E+02 0.  0.
       -6    2    1    2    0  503  0.11177516342E+02 -0.32575196021E+03  0.99994961511E+02  0.38179074089E+03  0.17183102469E+03 0.  0.
      -24    2    5    5    0    0 -0.55358664251E+02 -0.22951572724E+03  0.55768720552E+02  0.25662474609E+03  0.83690258421E+02 0.  0.
        5    1    3    3  501    0  0.29125833072E+01  0.44254956128E+02 -0.62262919263E+02  0.76588154427E+02  0.47000000000E+01 0. -1.
      -13    1    4    4    0    0 -0.16329150584E+01 -0.12695770437E+01  0.11566257233E+02  0.11749746544E+02  0.00000000000E+00 0.  1.
       14    1    4    4    0    0 -0.12457184591E+02  0.28276658113E+03  0.13910842690E+02  0.28338248428E+03  0.00000000000E+00 0. -1.
       -5    1    5    5    0  503  0.66536180593E+02 -0.96236232976E+02  0.44226240959E+02  0.12516599480E+03  0.47000000000E+01 0.  1.
        1    1    6    6  502    0 -0.19415392058E+02 -0.20685820654E+03  0.42083343294E+02  0.21198651571E+03  0.00000000000E+00 0. -1.
       -2    1    6    6    0  502 -0.35943272194E+02 -0.22657520700E+02  0.13685377258E+02  0.44638230374E+02  0.00000000000E+00 0.  1.
</event>
<event>
12   0  0.1544783E-01  0.2095224E+03  0.7957747E-01  0.1148450E+00
       21   -1    0    0  501  503  0.00000000000E+00  0.00000000000E+00  0.76797126112E+02  0.76797126112E+02  0.00000000000E+00 0.  1.
       21   -1    0    0  503  504  0.00000000000E+00  0.00000000000E+00 -0.58141978604E+03  0.58141978604E+03  0.00000000000E+00 0. -1.
        6    2    1    2  501    0  0.47738769604E+02  0.10702327288E+03 -0.29747731370E+03  0.36385766938E+03  0.17368557896E+03 0.  0.
       24    2    3    3    0    0 -0.41966103724E+01  0.12145615951E+03 -0.26129021432E+03  0.29876398250E+03  0.78855126140E+02 0.  0.
       -6    2    1    2    0  504 -0.47738769604E+02 -0.10702327288E+03 -0.20714534622E+03  0.29435924277E+03  0.17322008625E+03 0.  0.
      -24    2    5    5    0    0 -0.67424223948E+02 -0.12749417660E+02 -0.56849369972E+02  0.11579259592E+03  0.73942550524E+02 0.  0.
        5    1    3    3  501    0  0.51935379976E+02 -0.14432886633E+02 -0.36187099383E+02  0.65093686879E+02  0.47000000000E+01 0. -1.
      -11    1    4    4    0    0  0.16824201959E+02  0.21018036942E+01 -0.72245126744E+02  0.74208016336E+02  0.00000000000E+00 0.  1.
       12    1    4    4    0    0 -0.21020812331E+02  0.11935435581E+03 -0.18904508757E+03  0.22455596616E+03  0.00000000000E+00 0. -1.
       -5    1    5    5    0  504  0.19685454345E+02 -0.94273855217E+02 -0.15029597625E+03  0.17856664685E+03  0.47000000000E+01 0.  1.
        3    1    6    6  502    0 -0.21841659344E+02  0.23836603402E+02 -0.46188302376E+02  0.56379083187E+02  0.00000000000E+00 0. -1.
       -4    1    6    6    0  502 -0.45582564604E+02 -0.36586021062E+02 -0.10661067597E+02  0.59413512733E+02  0.00000000000E+00 0.  1.
</event>
<event>
12   0  0.1544783E-01  0.2012629E+03  0.7957747E-01  0.1154959E+00
       21   -1    0    0  501  503  0.00000000000E+00  0.00000000000E+00  0.76258050534E+02  0.76258050534E+02  0.00000000000E+00 0. -1.
       21   -1    0    0  503  504  0.00000000000E+00  0.00000000000E+00 -0.53183277137E+03  0.53183277137E+03  0.00000000000E+00 0. -1.
        6    2    1    2  501    0 -0.92189078469E+02 -0.44875139053E+02 -0.21201987079E+03  0.29213873775E+03  0.17285835876E+03 0.  0.
       24    2    3    3    0    0  0.14159057883E+02 -0.23938832542E+02 -0.13442412693E+03  0.15875416405E+03  0.79746423621E+02 0.  0.
       -6    2    1    2    0  504  0.92189078469E+02  0.44875139053E+02 -0.24355485004E+03  0.31595208415E+03  0.17318819303E+03 0.  0.
      -24    2    5    5    0    0  0.33315170931E+02  0.38904651273E+02 -0.38598249995E+02  0.10257195008E+03  0.80048157599E+02 0.  0.
        5    1    3    3  501    0 -0.10634813635E+03 -0.20936306511E+02 -0.77595743863E+02  0.13338457370E+03  0.47000000000E+01 0. -1.
      -11    1    4    4    0    0 -0.96327307554E+00 -0.51221854898E+02 -0.99589919637E+02  0.11199445704E+03  0.00000000000E+00 0.  1.
       12    1    4    4    0    0  0.15122330958E+02  0.27283022356E+02 -0.34834207290E+02  0.46759707014E+02  0.00000000000E+00 0. -1.
       -5    1    5    5    0  504  0.58873907538E+02  0.59704877803E+01 -0.20495660005E+03  0.21338013407E+03  0.47000000000E+01 0.  1.
        3    1    6    6  502    0  0.52913556122E+02  0.27067716844E+02 -0.49373601459E+02  0.77267446170E+02  0.00000000000E+00 0. -1.
       -4    1    6    6    0  502 -0.19598385191E+02  0.11836934429E+02  0.10775351464E+02  0.25304503906E+02  0.00000000000E+00 0.  1.
</event>
<event>
12   0  0.1544783E-01  0.1917323E+03  0.7957747E-01  0.1162909E+00
       21   -1    0    0  504  503  0.00000000000E+00  0.00000000000E+00  0.99416758641E+02  0.99416758641E+02  0.00000000000E+00 0. -1.
       21   -1    0    0  501  504  0.00000000000E+00  0.00000000000E+00 -0.60485917168E+03  0.60485917168E+03  0.00000000000E+00 0. -1.
        6    2    1    2  501    0  0.39336597070E+02  0.35867788285E+02 -0.48371389385E+03  0.52032719632E+03  0.18419390333E+03 0.  0.
       24    2    3    3    0    0  0.36051521084E+02 -0.33892457620E+02 -0.40198437363E+03  0.41272102499E+03  0.79364960611E+02 0.  0.
       -6    2    1    2    0  503 -0.39336597070E+02 -0.35867788285E+02 -0.21728519189E+02  0.18394873400E+03  0.17473162876E+03 0.  0.
      -24    2    5    5    0    0 -0.19718575371E+02  0.40164273146E+02 -0.41028813349E+02  0.10295285450E+03  0.83150079213E+02 0.  0.
        5    1    3    3  501    0  0.32850759860E+01  0.69760245905E+02 -0.81729520221E+02  0.10760617133E+03  0.47000000000E+01 0. -1.
        2    1    4    4  502    0 -0.21362977465E+02  0.69640590153E+01 -0.78638036058E+02  0.81785179826E+02  0.00000000000E+00 0. -1.
       -1    1    4    4    0  502  0.57414498549E+02 -0.40856516636E+02 -0.32334633757E+03  0.33093584516E+03  0.00000000000E+00 0.  1.
       -5    1    5    5    0  503 -0.19618021699E+02 -0.76032061431E+02  0.19300294160E+02  0.80995879497E+02  0.47000000000E+01 0.  1.
       11    1    6    6    0    0 -0.54521148366E+01  0.88801330969E+01  0.25784970362E+02  0.27810915422E+02  0.00000000000E+00 0. -1.
      -12    1    6    6    0    0 -0.14266460534E+02  0.31284140049E+02 -0.66813783711E+02  0.75141939079E+02  0.00000000000E+00 0.  1.
</event>
<event>
12   0  0.1544783E-01  0.1987193E+03  0.7957747E-01  0.1157033E+00
       -1   -1    0    0    0  501  0.00000000000E+00  0.00000000000E+00  0.69020403378E+02  0.69020403378E+02  0.00000000000E+00 0.  1.
        1   -1    0    0  502    0  0.00000000000E+00  0.00000000000E+00 -0.72277123901E+03  0.72277123901E+03  0.00000000000E+00 0. -1.
        6    2    1    2  502    0 -0.56879260129E+02 -0.66442300199E+02 -0.13930447343E+03  0.23826779126E+03  0.17238322002E+03 0.  0.
       24    2    3    3    0    0 -0.20323924256E+02  0.16227929468E+02 -0.77548646201E+02  0.12869347104E+03  0.99356979468E+02 0.  0.
       -6    2    1    2    0  501  0.56879260129E+02  0.66442300199E+02 -0.51444636221E+03  0.55352385113E+03  0.18461788835E+03 0.  0.
      -24    2    5    5    0    0  0.39616019074E+02  0.11122971455E+03 -0.45773365905E+03  0.47907687218E+03  0.77801468255E+02 0.  0.
        5    1    3    3  502    0 -0.36555335873E+02 -0.82670229667E+02 -0.61755827226E+02  0.10957432021E+03  0.47000000000E+01 0. -1.
        4    1    4    4  503    0  0.27299777626E+02 -0.11811928457E+02 -0.65774564394E+02  0.72187899495E+02  0.00000000000E+00 0. -1.
       -3    1    4    4    0  503 -0.47623701882E+02  0.28039857924E+02 -0.11774081807E+02  0.56505571547E+02  0.00000000000E+00 0.  1.
       -5    1    5    5    0  501  0.17263241054E+02 -0.44787414354E+02 -0.56712703154E+02  0.74446978953E+02  0.47000000000E+01 0.  1.
       13    1    6    6    0    0  0.17417294411E+02  0.11006778264E+03 -0.30472703261E+03  0.32446393224E+03  0.00000000000E+00 0. -1.
      -14    1    6    6    0    0  0.22198724663E+02  0.11619319103E+01 -0.15300662644E+03  0.15461293994E+03  0.00000000000E+00 0.  1.
</event>
<event>
12   0  0.1544783E-01  0.2670892E+03  0.7957747E-01  0.1110668E+00
       21   -1    0    0  504  503  0.00000000000E+00  0.00000000000E+00  0.70241894463E+03  0.70241894463E+03  0.00000000000E+00 0.  1.
       21   -1    0    0  501  504  0.00000000000E+00  0.00000000000E+00 -0.10128593192E+03  0.10128593192E+03  0.00000000000E+00 0. -1.
        6    2    1    2  501    0  0.88773285368E+02 -0.18240529206E+03  0.29503784513E+03  0.39797483896E+03  0.17373616669E+03 0.  0.
       24    2    3    3    0    0  0.58384959535E+02 -0.13678390009E+03  0.29832628817E+03  0.34285981733E+03  0.80222448854E+02 0.  0.
       -6    2    1    2    0  503 -0.88773285368E+02  0.18240529206E+03  0.30609516758E+03  0.40573003759E+03  0.17254050255E+03 0.  0.
      -24    2    5    5    0    0 -0.60515313529E+02  0.20182072302E+03  0.29046022199E+03  0.36775618533E+03  0.80521822378E+02 0.  0.
        5    1    3    3  501    0  0.30388325832E+02 -0.45621391966E+02 -0.32884430367E+01  0.55115021632E+02  0.47000000000E+01 0. -1.
      -13    1    4    4    0    0  0.67940660398E+02 -0.60454525732E+02  0.14189226042E+03  0.16853514940E+03  0.00000000000E+00 0.  1.
       14    1    4    4    0    0 -0.95557008629E+01 -0.76329374358E+02  0.15643402775E+03  0.17432466793E+03  0.00000000000E+00 0. -1.
       -5    1    5    5    0  503 -0.28257971838E+02 -0.19415430958E+02  0.15634945589E+02  0.37973852258E+02  0.47000000000E+01 0.  1.
        3    1    6    6  502    0 -0.32686093159E+02  0.92231885951E+02  0.71050680346E+02  0.12092684007E+03  0.00000000000E+00 0. -1.
       -4    1    6    6    0  502 -0.27829220370E+02  0.10958883706E+03  0.21940954165E+03  0.24682934526E+03  0.00000000000E+00 0.  1.
</event>
<event>
12   0  0.1544783E-01  0.2135727E+03  0.7957747E-01  0.1145377E+00
       21   -1    0    0  501  503  0.00000000000E+00  0.00000000000E+00  0.56217503826E+03  0.56217503826E+03  0.00000000000E+00 0. -1.
       21   -1    0    0  503  504  0.00000000000E+00  0.00000000000E+00 -0.18082646089E+03  0.18082646089E+03  0.00000000000E+00 0.  1.
        6    2    1    2  501    0  0.77835493876E+02 -0.96508376384E+02  0.46677507983E+03  0.51297758490E+03  0.17290111812E+03 0.  0.
       24    2    3    3    0    0  0.29159321212E+02 -0.70781038795E+02  0.13124634512E+03  0.17292922438E+03  0.82575372054E+02 0.  0.
       -6    2    1    2    0  504 -0.77835493876E+02  0.96508376384E+02 -0.85426502457E+02  0.23002391424E+03  0.17389963479E+03 0.  0.
      -24    2    5    5    0    0 -0.25057717377E+02 -0.11607506789E+01 -0.61379202272E+02  0.11633523969E+03  0.95588937544E+02 0.  0.
        5    1    3    3  501    0  0.48676172664E+02 -0.25727337589E+02  0.33552873470E+03  0.34004836052E+03  0.47000000000E+01 0. -1.
      -13    1    4    4    0    0 -0.18068807019E+02 -0.60671933698E+02  0.85672552820E+02  0.10652394863E+03  0.00000000000E+00 0.  1.
       14    1    4    4    0    0  0.47228128231E+02 -0.10109105097E+02  0.45573792304E+02  0.66405275747E+02  0.00000000000E+00 0. -1.
       -5    1    5    5    0  504 -0.52777776499E+02  0.97669127063E+02 -0.24047300185E+02  0.11368867454E+03  0.47000000000E+01 0.  1.
        3    1    6    6  502    0 -0.11764504910E+02 -0.47068870589E+02 -0.17870302396E+02  0.51703286762E+02  0.00000000000E+00 0. -1.
       -4    1    6    6    0  502 -0.13293212467E+02  0.45908119910E+02 -0.43508899876E+02  0.64631952932E+02  0.00000000000E+00 0.  1.
</event>
<event>
12   0  0.1544783E-01  0.1906332E+03  0.7957747E-01  0.1163859E+00
       -2   -1    0    0    0  501  0.00000000000E+00  0.00000000000E+00  0.27625688363E+03  0.27625688363E+03  0.00000000000E+00 0. -1.
        2   -1    0    0  502    0  0.00000000000E+00  0.00000000000E+00 -0.20599094592E+03  0.20599094592E+03  0.00000000000E+00 0.  1.
        6    2    1    2  502    0  0.22865712271E+01 -0.82154908227E+02 -0.11000632284E+03  0.21863409568E+03  0.17013177062E+03 0.  0.
       24    2    3    3    0    0  0.64663940076E+01 -0.12318687230E+03 -0.80157352903E+02  0.16750539532E+03  0.80100165295E+02 0.  0.
       -6    2    1    2    0  501 -0.22865712271E+01  0.82154908227E+02  0.18027226055E+03  0.26361373387E+03  0.17389495510E+03 0.  0.
      -24    2    5    5    0    0 -0.69020967718E+02  0.47772694094E+02  0.11562519543E+03  0.16443233767E+03  0.81379872006E+02 0.  0.
        5    1    3    3  502    0 -0.41798227805E+01  0.41031964070E+02 -0.29848969938E+02  0.51128700358E+02  0.47000000000E+01 0. -1.
      -13    1    4    4    0    0 -0.25906627132E+02 -0.40355132888E+02 -0.59108766788E+02  0.76115283557E+02  0.00000000000E+00 0.  1.
       14    1    4    4    0    0  0.32373021140E+02 -0.82831739410E+02 -0.21048586116E+02  0.91390111767E+02  0.00000000000E+00 0. -1.
       -5    1    5    5    0  501  0.66734396491E+02  0.34382214132E+02  0.64647065127E+02  0.99181396205E+02  0.47000000000E+01 0.  1.
        3    1    6    6  503    0 -0.59924459790E+01  0.21576055793E+02  0.87989322502E+02  0.90794033211E+02  0.00000000000E+00 0. -1.
       -4    1    6    6    0  503 -0.63028521739E+02  0.26196638302E+02  0.27635872924E+02  0.73638304456E+02  0.00000000000E+00 0.  1.
</event>
<event>
12   0  0.1544783E-01  0.2104387E+03  0.7957747E-01  0.1147748E+00
       21   -1    0    0  504  503  0.00000000000E+00  0.00000000000E+00  0.21179880158E+03  0.21179880158E+03  0.00000000000E+00 0.  1.
       21   -1    0    0  501  504  0.00000000000E+00  0.00000000000E+00 -0.21393257600E+03  0.21393257600E+03  0.00000000000E+00 0.  1.
        6    2    1    2  501    0 -0.29597702094E+02 -0.11502520800E+03  0.32361208366E+02  0.21248425349E+03  0.17319205447E+03 0.  0.
       24    2    3    3    0    0 -0.14563645724E+01 -0.12637606178E+03  0.68573706553E+02  0.16500571324E+03  0.80941350279E+02 0.  0.
       -6    2    1    2    0  503  0.29597702094E+02  0.11502520800E+03 -0.34494982788E+02  0.21324712408E+03  0.17371703903E+03 0.  0.
      -24    2    5    5    0    0  0.27061683253E+02  0.15081123151E+03 -0.16212186494E+02  0.17270798854E+03  0.78031096781E+02 0.  0.
        5    1    3    3  501    0 -0.28141337521E+02  0.11350853781E+02 -0.36212498187E+02  0.47478540247E+02  0.47000000000E+01 0. -1.
        2    1    4    4  502    0  0.35211706904E+02 -0.72006306717E+02  0.57141978207E+02  0.98437686805E+02  0.00000000000E+00 0. -1.
       -1    1    4    4    0  502 -0.36668071477E+02 -0.54369755059E+02  0.11431728346E+02  0.66568026439E+02  0.00000000000E+00 0.  1.
       -5    1    5    5    0  503  0.25360188409E+01 -0.35786023513E+02 -0.18282796294E+02  0.40539135545E+02  0.47000000000E+01 0.  1.
       13    1    6    6    0    0  0.26752323908E+02  0.12855493823E+03  0.17334842347E+02  0.13244831346E+03  0.00000000000E+00 0. -1.
      -14    1    6    6    0    0  0.30935934465E+00  0.22256293275E+02 -0.33547028842E+02  0.40259675081E+02  0.00000000000E+00 0.  1.
</event>
<event>
12   0  0.1544783E-01  0.1767978E+03  0.7957747E-01  0.1176447E+00
       21   -1    0    0  501  503  0.00000000000E+00  0.00000000000E+00  0.11370582317E+03  0.11370582317E+03  0.00000000000E+00 0. -1.
       21   -1    0    0  503  504  0.00000000000E+00  0.00000000000E+00 -0.31766047716E+03  0.31766047716E+03  0.00000000000E+00 0. -1.
        6    2    1    2  501    0 -0.27420545304E+00 -0.33445479922E+02 -0.20678202575E+02  0.17800295239E+03  0.17360526398E+03 0.  0.
       24    2    3    3    0    0  0.38037336400E+02 -0.89773489487E+01 -0.67030738148E+02  0.11290985578E+03  0.82024898171E+02 0.  0.
       -6    2    1    2    0  504  0.27420545304E+00  0.33445479922E+02 -0.18327645142E+03  0.25336334795E+03  0.17170921095E+03 0.  0.
      -24    2    5    5    0    0  0.60366306417E+02  0.23239509863E+01 -0.72849447825E+02  0.12376464701E+03  0.79756843615E+02 0.  0.
        5    1    3    3  501    0 -0.38311541853E+02 -0.24468130973E+02  0.46352535573E+02  0.65093096612E+02  0.47000000000E+01 0. -1.
      -11    1    4    4    0    0 -0.17434190837E+02 -0.22384396046E+02 -0.53404032402E+01  0.28870956051E+02  0.00000000000E+00 0.  1.
       12    1    4    4    0    0  0.55471527237E+02  0.13407047098E+02 -0.61690334908E+02  0.84038899725E+02  0.00000000000E+00 0. -1.
       -5    1    5    5    0  504 -0.60092100964E+02  0.31121528935E+02 -0.11042700359E+03  0.12959870094E+03  0.47000000000E+01 0.  1.
        3    1    6    6  502    0  0.32877753938E+02 -0.37485184324E+02 -0.48687015307E+02  0.69688673451E+02  0.00000000000E+00 0. -1.
       -4    1    6    6    0  502  0.27488552479E+02  0.39809135311E+02 -0.24162432517E+02  0.54075973562E+02  0.00000000000E+00 0.  1.
</event>
<event>
12   0  0.1544783E-01  0.2200287E+03  0.7957747E-01  0.1140629E+00
       21   -1    0    0  504  503  0.00000000000E+00  0.00000000000E+00  0.28113523644E+03  0.28113523644E+03  0.00000000000E+00 0. -1.
       21   -1    0    0  501  504  0.00000000000E+00  0.00000000000E+00 -0.20885696648E+03  0.20885696648E+03  0.00000000000E+00 0.  1.
        6    2    1    2  501    0 -0.13146509045E+03  0.35796992919E+02  0.14755596049E+03  0.25744253679E+03  0.16105714379E+03 0.  0.
       24    2    3    3    0    0 -0.10593841397E+03 -0.31680252065E+02  0.80526568792E+02  0.15885339361E+03  0.80766864831E+02 0.  0.
       -6    2    1    2    0  503  0.13146509045E+03 -0.35796992919E+02 -0.75277690530E+02  0.23254966613E+03  0.17276608989E+03 0.  0.
      -24    2    5    5    0    0  0.28562085281E+02  0.32522409888E+02 -0.10904649293E+02  0.93184865296E+02  0.81798581182E+02 0.  0.
        5    1    3    3  501    0 -0.25526676481E+02  0.67477244984E+02  0.67029391694E+02  0.98589143184E+02  0.47000000000E+01 0. -1.
        2    1    4    4  502    0 -0.29178055610E+02  0.52710535547E+01 -0.12972286637E+02  0.32363917490E+02  0.00000000000E+00 0. -1.
       -1    1    4    4    0  502 -0.76760358363E+02 -0.36951305619E+02  0.93498855428E+02  0.12648947612E+03  0.00000000000E+00 0.  1.
       -5    1    5    5    0  503  0.10290300517E+03 -0.68319402807E+02 -0.64373041237E+02  0.13936480083E+03  0.47000000000E+01 0.  1.
       13    1    6    6    0    0  0.63174993807E+01 -0.12622504727E+02  0.26806696838E+02  0.30295831716E+02  0.00000000000E+00 0. -1.
      -14    1    6    6    0    0  0.22244585901E+02  0.45144914616E+02 -0.37711346131E+02  0.62889033580E+02  0.00000000000E+00 0.  1.
</event>
<event>
12   0  0.1544783E-01  0.1763035E+03  0.7957747E-01  0.1176920E+00
       21   -1    0    0  504  503  0.00000000000E+00  0.00000000000E+00  0.55652143758E+03  0.55652143758E+03  0.00000000000E+00 0.  1.
       21   -1    0    0  501  504  0.00000000000E+00  0.00000000000E+00 -0.68716041018E+02  0.68716041018E+02  0.00000000000E+00 0.  1.
        6    2    1    2  501    0 -0.10511174799E+02 -0.25615331859E+02  0.37999696980E+03  0.41858422652E+03  0.17334482284E+03 0.  0.
       24    2    3    3    0    0 -0.53758711048E+02 -0.64331879728E+02  0.24972395913E+03  0.27588710749E+03  0.81994210461E+02 0.  0.
       -6    2    1    2    0  503  0.10511174799E+02  0.25615331859E+02  0.10780842676E+03  0.20665325209E+03  0.17411570778E+03 0.  0.
      -24    2    5    5    0    0 -0.32146407766E+02 -0.24617615628E+02  0.10776116337E+03  0.14058426846E+03  0.80697271800E+02 0.  0.
        5    1    3    3  501    0  0.43247536249E+02  0.38716547869E+02  0.13027301067E+03  0.14269711903E+03  0.47000000000E+01 0. -1.
        2    1    4    4  502    0 -0.43220752648E+02  0.58582910678E+01  0.12487830224E+03  0.13227601220E+03  0.00000000000E+00 0. -1.
       -1    1    4    4    0  502 -0.10537958399E+02 -0.70190170796E+02  0.12484565689E+03  0.14361109528E+03  0.00000000000E+00 0.  1.
       -5    1    5    5    0  503  0.42657582564E+02  0.50232947488E+02  0.47263393573E-01  0.66068983626E+02  0.47000000000E+01 0.  1.
       11    1    6    6    0    0  0.21111921191E+02 -0.22651656750E+02  0.65909694217E+02  0.72821003575E+02  0.00000000000E+00 0. -1.
      -12    1    6    6    0    0 -0.53258328957E+02 -0.19659588781E+01  0.41851469153E+02  0.67763264885E+02  0.00000000000E+00 0.  1.
</event>
<event>
12   0  0.1544783E-01  0.2267814E+03  0.7957747E-01  0.1135850E+00
       21   -1    0    0  501  503  0.00000000000E+00  0.00000000000E+00  0.33066465339E+03  0.33066465339E+03  0.00000000000E+00 0.  1.
       21   -1    0    0  503  504  0.00000000000E+00  0.00000000000E+00 -0.15492938141E+03  0.15492938141E+03  0.00000000000E+00 0. -1.
        6    2    1    2  501    0  0.92226866757E+02  0.11411952336E+03  0.93648439813E+02  0.24535658532E+03  0.17291837125E+03 0.  0.
       24    2    3    3    0    0  0.48700373133E+02 -0.19131500823E+01  0.71921214011E+02  0.11945067087E+03  0.81978138907E+02 0.  0.
       -6    2    1    2    0  504 -0.92226866757E+02 -0.11411952336E+03  0.82086832166E+02  0.24023744948E+03  0.17160047655E+03 0.  0.
      -24    2    5    5    0    0 -0.52872454790E+02 -0.87557131746E+01  0.83069945405E+02  0.12766143627E+03  0.80775413910E+02 0.  0.
        5    1    3    3  501    0  0.43526493623E+02  0.11603267344E+03  0.21727225802E+02  0.12590591445E+03  0.47000000000E+01 0. -1.
        4    1    4    4  502    0  0.67696812219E+02  0.45221098730E+01  0.32520797962E+02  0.75239020211E+02  0.00000000000E+00 0. -1.
       -3    1    4    4    0  502 -0.18996439086E+02 -0.64352599553E+01  0.39400416050E+02  0.44211650654E+02  0.00000000000E+00 0.  1.
       -5    1    5    5    0  504 -0.39354411967E+02 -0.10536381018E+03 -0.98311323920E+00  0.11257601321E+03  0.47000000000E+01 0.  1.
       13    1    6    6    0    0  0.20614236199E+02  0.69710927255E+01  0.19886908233E+02  0.29479348482E+02  0.00000000000E+00 0. -1.
      -14    1    6    6    0    0 -0.73486690989E+02 -0.15726805900E+02  0.63183037172E+02  0.98182087789E+02  0.00000000000E+00 0.  1.
</event>
<event>
12   0  0.1544783E-01  0.1885428E+03  0.7957747E-01  0.1165684E+00
       21   -1    0    0  501  503  0.00000000000E+00  0.00000000000E+00  0.93785227165E+02  0.93785227165E+02  0.00000000000E+00 0.  1.
       21   -1    0    0  503  504  0.00000000000E+00  0.00000000000E+00 -0.49270739864E+03  0.49270739864E+03  0.00000000000E+00 0.  1.
        6    2    1    2  501    0 -0.18269226189E+01 -0.70797024439E+02 -0.50455577192E+02  0.19517720846E+03  0.17473643328E+03 0.  0.
       24    2    3    3    0    0  0.22500664675E+02 -0.17638876265E+02  0.33279210624E+02  0.92945975893E+02  0.81939237903E+02 0.  0.
       -6    2    1    2    0  504  0.18269226189E+01  0.70797024439E+02 -0.34846659429E+03  0.39131541735E+03  0.16335002972E+03 0.  0.
      -24    2    5    5    0    0 -0.17990566199E+02  0.10086265222E+03 -0.19075020037E+03  0.22947220388E+03  0.75992883400E+02 0.  0.
        5    1    3    3  501    0 -0.24327587294E+02 -0.53158148174E+02 -0.83734787816E+02  0.10223123256E+03  0.47000000000E+01 0. -1.
      -11    1    4    4    0    0  0.23924718868E+01 -0.49128514444E+02  0.22286114211E+02  0.54000053146E+02  0.00000000000E+00 0.  1.
       12    1    4    4    0    0  0.20108192788E+02  0.31489638179E+02  0.10993096413E+02  0.38945922746E+02  0.00000000000E+00 0. -1.
       -5    1    5    5    0  504  0.19817488818E+02 -0.30065627781E+02 -0.15771639392E+03  0.16184321347E+03  0.47000000000E+01 0.  1.
        3    1    6    6  502    0 -0.22730931524E+02 -0.18946846895E+00 -0.59956491534E+02  0.64121073161E+02  0.00000000000E+00 0. -1.
       -4    1    6    6    0  502  0.47403653247E+01  0.10105212069E+03 -0.13079370884E+03  0.16535113072E+03  0.00000000000E+00 0.  1.
</event>
<event>
12   0  0.1544783E-01  0.2376951E+03  0.7957747E-01  0.1128499E+00
       21   -1    0    0  504  503  0.00000000000E+00  0.00000000000E+00  0.35902240971E+03  0.35902240971E+03  0.00000000000E+00 0. -1.
       21   -1    0    0  501  504  0.00000000000E+00  0.00000000000E+00 -0.52997883930E+03  0.52997883930E+03  0.00000000000E+00 0. -1.
        6    2    1    2  501    0 -0.15010366762E+03 -0.74475410470E+02 -0.45875917731E+03  0.51573273300E+03  0.16565799504E+03 0.  0.
       24    2    3    3    0    0 -0.82766456849E+02 -0.90806868675E+01 -0.13225308014E+03  0.17596944582E+03  0.80880302919E+02 0.  0.
       -6    2    1    2    0  503  0.15010366762E+03  0.74475410470E+02  0.28780274771E+03  0.37326851601E+03  0.16858607788E+03 0.  0.
      -24    2    5    5    0    0  0.10985928855E+03  0.11472092620E+03  0.19291830320E+03  0.26252349629E+03  0.80443521827E+02 0.  0.
        5    1    3    3  501    0 -0.67337210775E+02 -0.65394723602E+02 -0.32650609716E+03  0.33976328718E+03  0.47000000000E+01 0. -1.
        4    1    4    4  502    0 -0.53671193808E+02  0.32348611407E+02 -0.91884654733E+02  0.11121969016E+03  0.00000000000E+00 0. -1.
       -3    1    4    4    0  502 -0.29095263040E+02 -0.41429298275E+02 -0.40368425410E+02  0.64749755652E+02  0.00000000000E+00 0.  1.
       -5    1    5    5    0  503  0.40244379070E+02 -0.40245515727E+02  0.94884444516E+02  0.11074501973E+03  0.47000000000E+01 0.  1.
       13    1    6    6    0    0  0.71490570298E+02  0.73063149993E+02  0.17579862761E+03  0.20335752506E+03  0.00000000000E+00 0. -1.
      -14    1    6    6    0    0  0.38368718257E+02  0.41657776204E+02  0.17119675587E+02  0.59165971226E+02  0.00000000000E+00 0.  1.
</event>
<event>
12   0  0.1544783E-01  0.1860748E+03  0.7957747E-01  0.1167873E+00
       -1   -1    0    0    0  501  0.00000000000E+00  0.00000000000E+00  0.65636925787E+02  0.65636925787E+02  0.00000000000E+00 0. -1.
        1   -1    0    0  502    0  0.00000000000E+00  0.00000000000E+00 -0.52810101253E+03  0.52810101253E+03  0.00000000000E+00 0.  1.
        6    2    1    2  502    0  0.49686432377E+01  0.71785398657E+02 -0.22162873892E+03  0.28956850533E+03  0.17190925075E+03 0.  0.
       24    2    3    3    0    0  0.21305195121E+02  0.91592042762E+02 -0.80318680004E+02  0.14586809188E+03  0.77352415824E+02 0.  0.
       -6    2    1    2    0  501 -0.49686432377E+01 -0.71785398657E+02 -0.24083534782E+03  0.30416943298E+03  0.17128791061E+03 0.  0.
      -24    2    5    5    0    0  0.20770559584E+01 -0.48251321371E+02 -0.41684643267E+02  0.10345424223E+03  0.81441184768E+02 0.  0.
        5    1    3    3  502    0 -0.16336551883E+02 -0.19806644105E+02 -0.14131005891E+03  0.14370041346E+03  0.47000000000E+01 0. -1.
        2    1    4    4  503    0 -0.82212924356E+01  0.87376495264E+02 -0.41957489177E+02  0.97276268801E+02  0.00000000000E+00 0. -1.
       -1    1    4    4    0  503  0.29526487556E+02  0.42155474981E+01 -0.38361190827E+02  0.48591823076E+02  0.00000000000E+00 0.  1.
       -5    1    5    5    0  501 -0.70456991961E+01 -0.23534077286E+02 -0.19915070456E+03  0.20071519075E+03  0.47000000000E+01 0.  1.
       13    1    6    6    0    0 -0.24093747319E+02  0.12209448499E+02 -0.33146113666E+01  0.27213341232E+02  0.00000000000E+00 0. -1.
      -14    1    6    6    0    0  0.26170803277E+02 -0.60460769870E+02 -0.38370031901E+02  0.76240901002E+02  0.00000000000E+00 0.  1.
</event>
<event>
12   0  0.1544783E-01  0.2691177E+03  0.7957747E-01  0.1109530E+00
        2   -1    0    0  502    0  0.00000000000E+00  0.00000000000E+00  0.16752741685E+03  0.16752741685E+03  0.00000000000E+00 0. -1.
       -2   -1    0    0    0  501  0.00000000000E+00  0.00000000000E+00 -0.43361270825E+03  0.43361270825E+03  0.00000000000E+00 0.  1.
        6    2    1    2  502    0  0.49885061385E+02 -0.20242391603E+03 -0.15012918701E+03  0.30942939922E+03  0.17246396488E+03 0.  0.
       24    2    3    3    0    0  0.89909500628E+02 -0.19498021525E+03 -0.11951435347E+03  0.25827548978E+03  0.79508146101E+02 0.  0.
       -6    2    1    2    0  501 -0.49885061385E+02  0.20242391603E+03 -0.11595610439E+03  0.29171072588E+03  0.16788498539E+03 0.  0.
      -24    2    5    5    0    0 -0.82958548550E+02  0.81865262929E+02 -0.76061905816E+02  0.16040238087E+03  0.79746274022E+02 0.  0.
        5    1    3    3  502    0 -0.40024439243E+02 -0.74437007788E+01 -0.30614833537E+02  0.51153909435E+02  0.47000000000E+01 0. -1.
      -11    1    4    4    0    0  0.58531392457E+02 -0.16840153363E+03 -0.12362006390E+03  0.21694911991E+03  0.00000000000E+00 0.  1.
       12    1    4    4    0    0  0.31378108171E+02 -0.26578681623E+02  0.41057104259E+01  0.41326369879E+02  0.00000000000E+00 0. -1.
       -5    1    5    5    0  501  0.33073487164E+02  0.12055865310E+03 -0.39894198578E+02  0.13130834501E+03  0.47000000000E+01 0.  1.
        1    1    6    6  503    0 -0.44971862680E+02  0.30605011194E+02  0.78802311178E+01  0.54965745565E+02  0.00000000000E+00 0. -1.
       -2    1    6    6    0  503 -0.37986685869E+02  0.51260251735E+02 -0.83942136934E+02  0.10543663530E+03  0.00000000000E+00 0.  1.
</event>
<event>
12   0  0.1544783E-01  0.2055371E+03  0.7957747E-01  0.1151549E+00
       21   -1    0    0  501  503  0.00000000000E+00  0.00000000000E+00  0.22389706054E+03  0.22389706054E+03  0.00000000000E+00 0.  1.
       21   -1    0    0  503  504  0.00000000000E+00  0.00000000000E+00 -0.20500363422E+03  0.20500363422E+03  0.00000000000E+00 0.  1.
        6    2    1    2  501    0  0.30245495711E+02  0.10399974639E+03  0.73651532042E+02  0.21833471221E+03  0.17468474783E+03 0.  0.
       24    2    3    3    0    0 -0.28782584021E+02  0.38836452691E+02 -0.12623773711E+02  0.95062300757E+02  0.80875052778E+02 0.  0.
       -6    2    1    2    0  504 -0.30245495711E+02 -0.10399974639E+03 -0.54758105728E+02  0.21056598255E+03  0.17207221044E+03 0.  0.
      -24    2    5    5    0    0  0.98886598058E+01  0.75854828131E+01 -0.42320634574E+02  0.91239562583E+02  0.79864238100E+02 0.  0.
        5    1    3    3  501    0  0.59028079732E+02  0.65163293695E+02  0.86275305753E+02  0.12327241145E+03  0.47000000000E+01 0. -1.
      -11    1    4    4    0    0 -0.23940203484E+02 -0.25676474114E+01  0.27949693580E+02  0.36890534387E+02  0.00000000000E+00 0.  1.
       12    1    4    4    0    0 -0.48423805371E+01  0.41404100102E+02 -0.40573467292E+02  0.58171766370E+02  0.00000000000E+00 0. -1.
       -5    1    5    5    0  504 -0.40134155517E+02 -0.11158522920E+03 -0.12437471154E+02  0.11932641997E+03  0.47000000000E+01 0.  1.
        3    1    6    6  502    0  0.42384574058E+02  0.11629672589E+02 -0.96815130644E+01  0.45004811941E+02  0.00000000000E+00 0. -1.
       -4    1    6    6    0  502 -0.32495914252E+02 -0.40441897758E+01 -0.32639121510E+02  0.46234750642E+02  0.00000000000E+00 0.  1.
</event>
<event>
12   0  0.1544783E-01  0.2315941E+03  0.7957747E-01  0.1132554E+00
       -1   -1    0    0    0  501  0.00000000000E+00  0.00000000000E+00  0.13444416478E+03  0.13444416478E+03  0.00000000000E+00 0.  1.
        1   -1    0    0  502    0  0.00000000000E+00  0.00000000000E+00 -0.40619763336E+03  0.40619763336E+03  0.00000000000E+00 0. -1.
        6    2    1    2  502    0  0.36969919031E+02  0.14866390699E+03 -0.99752167996E+02  0.25215807179E+03  0.17368208312E+03 0.  0.
       24    2    3    3    0    0 -0.32504931441E+01  0.14022311798E+02 -0.18357375297E+01  0.80822850467E+02  0.79509573584E+02 0.  0.
       -6    2    1    2    0  501 -0.36969919031E+02 -0.14866390699E+03 -0.17200130058E+03  0.28848372634E+03  0.17369709498E+03 0.  0.
      -24    2    5    5    0    0 -0.62992320653E+02 -0.50223504579E+02 -0.39162516268E+02  0.12104445128E+03  0.81410218227E+02 0.  0.
        5    1    3    3  502    0  0.40220412175E+02  0.13464159519E+03 -0.97916430466E+02  0.17133522133E+03  0.47000000000E+01 0. -1.
      -11    1    4    4    0    0  0.12193273087E+02  0.29692142575E+02  0.28786999988E+02  0.43116013354E+02  0.00000000000E+00 0.  1.
       12    1    4    4    0    0 -0.15443766231E+02 -0.15669830777E+02 -0.30622737518E+02  0.37706837113E+02  0.00000000000E+00 0. -1.
       -5    1    5    5    0  501  0.26022401623E+02 -0.98440402414E+02 -0.13283878431E+03  0.16743927506E+03  0.47000000000E+01 0.  1.
        1    1    6    6  503    0 -0.58362461288E+01 -0.33148179590E+02 -0.50141165306E+02  0.60390396896E+02  0.00000000000E+00 0. -1.
       -2    1    6    6    0  503 -0.57156074525E+02 -0.17075324989E+02  0.10978649038E+02  0.60654054384E+02  0.00000000000E+00 0.  1.
</event>
<event>
12   0  0.1544783E-01  0.1777495E+03  0.7957747E-01  0.1175541E+00
       21   -1    0    0  501  503  0.00000000000E+00  0.00000000000E+00  0.48708919324E+03  0.48708919324E+03  0.00000000000E+00 0.  1.
       21   -1    0    0  503  504  0.00000000000E+00  0.00000000000E+00 -0.12839016863E+03  0.12839016863E+03  0.00000000000E+00 0.  1.
        6    2    1    2  501    0  0.19455209541E+02  0.64443271828E+01  0.39881353201E+03  0.43663157778E+03  0.17656405881E+03 0.  0.
       24    2    3    3    0    0  0.72539442067E+02  0.26704116403E+01  0.34252821424E+03  0.35902806511E+03  0.79413300107E+02 0.  0.
       -6    2    1    2    0  504 -0.19455209541E+02 -0.64443271828E+01 -0.40114507406E+02  0.17884778409E+03  0.17308183509E+03 0.  0.
      -24    2    5    5    0    0 -0.64819366843E+02  0.27761196843E+02  0.42207808477E+01  0.10662844855E+03  0.79872252262E+02 0.  0.
        5    1    3    3  501    0 -0.53084232526E+02  0.37739155425E+01  0.56285317778E+02  0.77603512670E+02  0.47000000000E+01 0. -1.
      -13    1    4    4    0    0  0.55502321882E+02  0.38448416300E+02  0.19975032979E+03  0.21085298836E+03  0.00000000000E+00 0.  1.
       14    1    4    4    0    0  0.17037120186E+02 -0.35778004660E+02  0.14277788445E+03  0.14817507674E+03  0.00000000000E+00 0. -1.
       -5    1    5    5    0  504  0.45364157302E+02 -0.34205524026E+02 -0.44335288254E+02  0.72219335542E+02  0.47000000000E+01 0.  1.
        1    1    6    6  502    0 -0.38883234623E+02  0.55736013116E+02  0.73346002722E+01  0.68353532856E+02  0.00000000000E+00 0. -1.
       -2    1    6    6    0  502 -0.25936132220E+02 -0.27974816273E+02 -0.31138194245E+01  0.38274915695E+02  0.00000000000E+00 0.  1.
</event>
<event>
12   0  0.1544783E-01  0.2091122E+03  0.7957747E-01  0.1148765E+00
       21   -1    0    0  504  503  0.00000000000E+00  0.00000000000E+00  0.38507064505E+02  0.38507064505E+02  0.00000000000E+00 0. -1.
       21   -1    0    0  501  504  0.00000000000E+00  0.00000000000E+00 -0.12508370080E+04  0.12508370080E+04  0.00000000000E+00 0. -1.
        6    2    1    2  501    0  0.94939804138E+02 -0.69031556236E+02 -0.80350504915E+03  0.83014292771E+03  0.17244707670E+03 0.  0.
       24    2    3    3    0    0  0.23438836692E+01  0.17571130411E+02 -0.32334559808E+03  0.33350501306E+03  0.79743209891E+02 0.  0.
       -6    2    1    2    0  503 -0.94939804138E+02  0.69031556236E+02 -0.40882489435E+03  0.45920114479E+03  0.17305772151E+03 0.  0.
      -24    2    5    5    0    0 -0.11047007841E+03  0.27696588586E+01 -0.22408063272E+03  0.26226369110E+03  0.79742112304E+02 0.  0.
        5    1    3    3  501    0  0.92595920469E+02 -0.86602686648E+02 -0.48015945107E+03  0.49663791466E+03  0.47000000000E+01 0. -1.
      -11    1    4    4    0    0 -0.16960754613E+02 -0.29115870641E+01 -0.12213663135E+02  0.21102561538E+02  0.00000000000E+00 0.  1.
       12    1    4    4    0    0  0.19304638283E+02  0.20482717475E+02 -0.31113193494E+03  0.31240245152E+03  0.00000000000E+00 0. -1.
       -5    1    5    5    0  503  0.15530274271E+02  0.66261897378E+02 -0.18474426163E+03  0.19693745369E+03  0.47000000000E+01 0.  1.
        1    1    6    6  502    0 -0.38630165887E+02  0.16279827404E+02 -0.15886092194E+03  0.16429885884E+03  0.00000000000E+00 0. -1.
       -2    1    6    6    0  502 -0.71839912522E+02 -0.13510168545E+02 -0.65219710784E+02  0.97964832262E+02  0.00000000000E+00 0.  1.
</event>
<event>
12   0  0.1544783E-01  0.2080129E+03  0.7957747E-01  0.1149614E+00
       21   -1    0    0  504  503  0.00000000000E+00  0.00000000000E+00  0.11429230196E+04  0.11429230196E+04  0.00000000000E+00 0.  1.
       21   -1    0    0  501  504  0.00000000000E+00  0.00000000000E+00 -0.38986807698E+02  0.38986807698E+02  0.00000000000E+00 0. -1.
        6    2    1    2  501    0  0.84785398763E+02  0.76256675292E+02  0.44854841460E+03  0.49443406661E+03  0.17397046190E+03 0.  0.
       24    2    3    3    0    0  0.72218827091E+02  0.12073713845E+03  0.33453735428E+03  0.37132012669E+03  0.78551763117E+02 0.  0.
       -6    2    1    2    0  503 -0.84785398763E+02 -0.76256675292E+02  0.65538779726E+03  0.68747576065E+03  0.17345348746E+03 0.  0.
      -24    2    5    5    0    0 -0.12090374182E+03 -0.84141812490E+02  0.48637938813E+03  0.51440744336E+03  0.79702880679E+02 0.  0.
        5    1    3    3  501    0  0.12566571672E+02 -0.44480463162E+02  0.11401106032E+03  0.12311393992E+03  0.47000000000E+01 0. -1.
        4    1    4    4  502    0  0.26152157376E+01  0.77995358144E+02  0.13899545468E+03  0.15940467893E+03  0.00000000000E+00 0. -1.
       -3    1    4    4    0  502  0.69603611354E+02  0.42741780310E+02  0.19554189960E+03  0.21191544776E+03  0.00000000000E+00 0.  1.
       -5    1    5    5    0  503  0.36118343053E+02  0.78851371983E+01  0.16900840913E+03  0.17306831729E+03  0.47000000000E+01 0.  1.
       11    1    6    6    0    0 -0.11815407454E+03 -0.88994103012E+02  0.48683560163E+03  0.50881159452E+03  0.00000000000E+00 0. -1.
      -12    1    6    6    0    0 -0.27496672761E+01  0.48522905213E+01 -0.45621350311E+00  0.55958488357E+01  0.00000000000E+00 0.  1.
</event>
<event>
12   0  0.1544783E-01  0.2018188E+03  0.7957747E-01  0.1154510E+00
       21   -1    0    0  501  503  0.00000000000E+00  0.00000000000E+00  0.11415427812E+03  0.11415427812E+03  0.00000000000E+00 0. -1.
       21   -1    0    0  503  504  0.00000000000E+00  0.00000000000E+00 -0.35772002443E+03  0.35772002443E+03  0.00000000000E+00 0. -1.
        6    2    1    2  501    0 -0.10299555883E+03  0.51827754663E+01 -0.10360827500E+03  0.22627522494E+03  0.17271611527E+03 0.  0.
       24    2    3    3    0    0 -0.83484497805E+02  0.16345164139E+02  0.23997835869E+01  0.11780827648E+03  0.81462907400E+02 0.  0.
       -6    2    1    2    0  504  0.10299555883E+03 -0.51827754663E+01 -0.13995747132E+03  0.24559907761E+03  0.17348160377E+03 0.  0.
      -24    2    5    5    0    0  0.13085188335E+02  0.18218495374E+02 -0.13104947835E+03  0.15214889549E+03  0.73974217784E+02 0.  0.
        5    1    3    3  501    0 -0.19511061022E+02 -0.11162388672E+02 -0.10600805858E+03  0.10846694846E+03  0.47000000000E+01 0. -1.
      -13    1    4    4    0    0 -0.63545940776E+02  0.47171348650E+02  0.11534083772E+02  0.79976607899E+02  0.00000000000E+00 0.  1.
       14    1    4    4    0    0 -0.19938557030E+02 -0.30826184512E+02 -0.91343001852E+01  0.37831668584E+02  0.00000000000E+00 0. -1.
       -5    1    5    5    0  504  0.89910370493E+02 -0.23401270840E+02 -0.89079929703E+01  0.93450182118E+02  0.47000000000E+01 0.  1.
        3    1    6    6  502    0  0.38944588747E+02  0.60466281693E+01 -0.37764853960E+02  0.54584126809E+02  0.00000000000E+00 0. -1.
       -4    1    6    6    0  502 -0.25859400412E+02  0.12171867204E+02 -0.93284624389E+02  0.97564768684E+02  0.00000000000E+00 0.  1.
</event>
<event>
12   0  0.1544783E-01  0.1882872E+03  0.7957747E-01  0.1165909E+00
       21   -1    0    0  501  503  0.00000000000E+00  0.00000000000E+00  0.34393764053E+03  0.34393764053E+03  0.00000000000E+00 0. -1.
       21   -1    0    0  503  504  0.00000000000E+00  0.00000000000E+00 -0.11267555970E+03  0.11267555970E+03  0.00000000000E+00 0. -1.
        6    2    1    2  501    0 -0.51841451320E+02  0.51386448914E+02  0.18280080779E+03  0.26242750732E+03  0.17356254798E+03 0.  0.
       24    2    3    3    0    0  0.30667850863E+02  0.42993478357E+02  0.51179955569E+02  0.10678572102E+03  0.77426391528E+02 0.  0.
       -6    2    1    2    0  504  0.51841451320E+02 -0.51386448914E+02  0.48461273037E+02  0.19418569291E+03  0.17329594669E+03 0.  0.
      -24    2    5    5    0    0 -0.70227971639E+01 -0.89858248273E+02  0.24622362447E+02  0.11978500236E+03  0.74955730909E+02 0.  0.
        5    1    3    3  501    0 -0.82509302183E+02  0.83929705570E+01  0.13162085222E+03  0.15564178630E+03  0.47000000000E+01 0. -1.
        2    1    4    4  502    0 -0.84950439761E+01  0.40816071979E+02  0.53105304966E+02  0.67515116229E+02  0.00000000000E+00 0. -1.
       -1    1    4    4    0  502  0.39162894839E+02  0.21774063773E+01 -0.19253493968E+01  0.39270604795E+02  0.00000000000E+00 0.  1.
       -5    1    5    5    0  504  0.58864248484E+02  0.38471799360E+02  0.23838910589E+02  0.74400690545E+02  0.47000000000E+01 0.  1.
       13    1    6    6    0    0  0.21659161389E+02 -0.74835077441E+02  0.35520421375E+02  0.85621892191E+02  0.00000000000E+00 0. -1.
      -14    1    6    6    0    0 -0.28681958553E+02 -0.15023170833E+02 -0.10898058928E+02  0.34163110173E+02  0.00000000000E+00 0.  1.
</event>
<event>
12   0  0.1544783E-01  0.2375488E+03  0.7957747E-01  0.1128595E+00
       21   -1    0    0  504  503  0.00000000000E+00  0.00000000000E+00  0.14502777991E+03  0.14502777991E+03  0.00000000000E+00 0.  1.
       21   -1    0    0  501  504  0.00000000000E+00  0.00000000000E+00 -0.52772654586E+03  0.52772654586E+03  0.00000000000E+00 0. -1.
        6    2    1    2  501    0  0.14981582534E+03 -0.63402661154E+02 -0.18677242632E+02  0.23828194455E+03  0.17310334123E+03 0.  0.
       24    2    3    3    0    0  0.17065661245E+02 -0.29266129655E+02  0.31407146415E+02  0.92273571929E+02  0.79876530294E+02 0.  0.
       -6    2    1    2    0  503 -0.14981582534E+03  0.63402661154E+02 -0.36402152331E+03  0.43447238122E+03  0.17259751344E+03 0.  0.
      -24    2    5    5    0    0 -0.92115181880E+02  0.90654765986E+02 -0.32580116620E+03  0.35994099742E+03  0.81900112322E+02 0.  0.
        5    1    3    3  501    0  0.13275016409E+03 -0.34136531499E+02 -0.50084389047E+02  0.14600837262E+03  0.47000000000E+01 0. -1.
      -11    1    4    4    0    0  0.46412255749E+02 -0.30284254426E+02  0.10961105158E+02  0.56492294839E+02  0.00000000000E+00 0.  1.
       12    1    4    4    0    0 -0.29346594505E+02  0.10181247706E+01  0.20446041258E+02  0.35781277090E+02  0.00000000000E+00 0. -1.
       -5    1    5    5    0  503 -0.57700643458E+02 -0.27252104832E+02 -0.38220357111E+02  0.74531383799E+02  0.47000000000E+01 0.  1.
        3    1    6    6  502    0 -0.54994392205E+02  0.89763935883E+01 -0.73997646544E+02  0.92631584839E+02  0.00000000000E+00 0. -1.
       -4    1    6    6    0  502 -0.37120789676E+02  0.81678372398E+02 -0.25180351965E+03  0.26730941258E+03  0.00000000000E+00 0.  1.
</event>
<event>
12   0  0.1544783E-01  0.1929483E+03  0.7957747E-01  0.1161867E+00
       21   -1    0    0  504  503  0.00000000000E+00  0.00000000000E+00  0.82887780863E+03  0.82887780863E+03  0.00000000000E+00 0.  1.
       21   -1    0    0  501  504  0.00000000000E+00  0.00000000000E+00 -0.55695731304E+02  0.55695731304E+02  0.00000000000E+00 0.  1.
        6    2    1    2  501    0 -0.82403468356E+02 -0.90202696168E+01  0.19062215706E+03  0.27089194991E+03  0.17370649068E+03 0.  0.
       24    2    3    3    0    0 -0.30943310640E+02 -0.63933821832E+02  0.13963370922E+03  0.17986691016E+03  0.88371435270E+02 0.  0.
       -6    2    1    2    0  503  0.82403468356E+02  0.90202696168E+01  0.58255992027E+03  0.61368159003E+03  0.17423356844E+03 0.  0.
      -24    2    5    5    0    0  0.39679995801E+02  0.67051921614E+02  0.25624343038E+03  0.27946981688E+03  0.79826190386E+02 0.  0.
        5    1    3    3  501    0 -0.51460157717E+02  0.54913552216E+02  0.50988447842E+02  0.91025039756E+02  0.47000000000E+01 0. -1.
      -13    1    4    4    0    0 -0.48492740080E+02 -0.22495758597E+02  0.29868310102E+02  0.61234965042E+02  0.00000000000E+00 0.  1.
       14    1    4    4    0    0  0.17549429441E+02 -0.41438063235E+02  0.10976539912E+03  0.11863194511E+03  0.00000000000E+00 0. -1.
       -5    1    5    5    0  503  0.42723472555E+02 -0.58031651998E+02  0.32631648988E+03  0.33421177315E+03  0.47000000000E+01 0.  1.
        1    1    6    6  502    0  0.62259639480E+02  0.62021502584E+02  0.21324790210E+03  0.23064604319E+03  0.00000000000E+00 0. -1.
       -2    1    6    6    0  502 -0.22579643679E+02  0.50304190305E+01  0.42995528288E+02  0.48823773688E+02  0.00000000000E+00 0.  1.
</event>
<event>
12   0  0.1544783E-01  0.2345498E+03  0.7957747E-01  0.1130573E+00
       21   -1    0    0  504  503  0.00000000000E+00  0.00000000000E+00  0.12799717780E+03  0.12799717780E+03  0.00000000000E+00 0. -1.
       21   -1    0    0  501  504  0.00000000000E+00  0.00000000000E+00 -0.43430000208E+03  0.43430000208E+03  0.00000000000E+00 0. -1.
        6    2    1    2  501    0 -0.49471738181E+01  0.15700616126E+03 -0.18482838830E+03  0.29862210980E+03  0.17417870748E+03 0.  0.
       24    2    3    3    0    0 -0.57132474320E+02  0.12962370415E+03 -0.17535885132E+03  0.23874835364E+03  0.78636030753E+02 0.  0.
       -6    2    1    2    0  503  0.49471738181E+01 -0.15700616126E+03 -0.12147443598E+03  0.26367507008E+03  0.17347361409E+03 0.  0.
      -24    2    5    5    0    0 -0.60976522845E+02 -0.11109649556E+03 -0.51783954600E+02  0.15722092794E+03  0.77306368192E+02 0.  0.
        5    1    3    3  501    0  0.52185300502E+02  0.27382457105E+02 -0.94695369828E+01  0.59873756157E+02  0.47000000000E+01 0. -1.
      -11    1    4    4    0    0 -0.99636654248E+01  0.41381752425E+02 -0.73393156616E+01  0.43192471761E+02  0.00000000000E+00 0.  1.
       12    1    4    4    0    0 -0.47168808896E+02  0.88241951726E+02 -0.16801953565E+03  0.19555588188E+03  0.00000000000E+00 0. -1.
       -5    1    5    5    0  503  0.65923696663E+02 -0.45909665696E+02 -0.69690481377E+02  0.10645414215E+03  0.47000000000E+01 0.  1.
        1    1    6    6  502    0 -0.57218593183E+02 -0.42156010911E+02 -0.52192594513E+02  0.88176888036E+02  0.00000000000E+00 0. -1.
       -2    1    6    6    0  502 -0.37579296615E+01 -0.68940484649E+02  0.40863991366E+00  0.69044039899E+02  0.00000000000E+00 0.  1.
</event>
<event>
12   0  0.1544783E-01  0.1881384E+03  0.7957747E-01  0.1166040E+00
       21   -1    0    0  501  503  0.00000000000E+00  0.00000000000E+00  0.47222633130E+02  0.47222633130E+02  0.00000000000E+00 0. -1.
       21   -1    0    0  503  504  0.00000000000E+00  0.00000000000E+00 -0.82249732779E+03  0.82249732779E+03  0.00000000000E+00 0. -1.
        6    2    1    2  501    0  0.60023272684E+02 -0.41046307033E+02 -0.24708008245E+03  0.31055537251E+03  0.17351795201E+03 0.  0.
       24    2    3    3    0    0 -0.28473130371E+02 -0.41893764230E+02 -0.16238292541E+03  0.18796650700E+03  0.79983664927E+02 0.  0.
       -6    2    1    2    0  504 -0.60023272684E+02  0.41046307033E+02 -0.52819461222E+03  0.55916458841E+03  0.16848707955E+03 0.  0.
      -24    2    5    5    0    0 -0.58094546977E+02 -0.56610806549E+01 -0.48546276949E+03  0.49565553055E+03  0.81199015895E+02 0.  0.
        5    1    3    3  501    0  0.88496403054E+02  0.84745719706E+00 -0.84697157039E+02  0.12258886551E+03  0.47000000000E+01 0. -1.
        4    1    4    4  502    0 -0.35773469660E+02 -0.62603933858E+02 -0.11487616426E+03  0.13563011016E+03  0.00000000000E+00 0. -1.
       -3    1    4    4    0  502  0.73003392897E+01  0.20710169628E+02 -0.47506761147E+02  0.52336396843E+02  0.00000000000E+00 0.  1.
       -5    1    5    5    0  504 -0.19287257068E+01  0.46707387688E+02 -0.42731842724E+02  0.63509057859E+02  0.47000000000E+01 0.  1.
       13    1    6    6    0    0 -0.30867467688E+02  0.37715092647E+02 -0.22874399383E+03  0.23387826639E+03  0.00000000000E+00 0. -1.
      -14    1    6    6    0    0 -0.27227079289E+02 -0.43376173302E+02 -0.25671877566E+03  0.26177726417E+03  0.00000000000E+00 0.  1.
</event>
<event>
12   0  0.1544783E-01  0.2079901E+03  0.7957747E-01  0.1149632E+00
       21   -1    0    0  504  503  0.00000000000E+00  0.00000000000E+00  0.13138889662E+04  0.13138889662E+04  0.00000000000E+00 0. -1.
       21   -1    0    0  501  504  0.00000000000E+00  0.00000000000E+00 -0.80455415032E+02  0.80455415032E+02  0.00000000000E+00 0. -1.
        6    2    1    2  501    0  0.11373888699E+03 -0.20506474232E+02  0.80123357084E+02  0.22242958527E+03  0.17233141952E+03 0.  0.
       24    2    3    3    0    0  0.97767429457E+02 -0.62167783468E+02  0.10070695999E+03  0.17306839757E+03  0.79921679682E+02 0.  0.
       -6    2    1    2    0  503 -0.11373888699E+03  0.20506474232E+02  0.11533101941E+04  0.11719147960E+04  0.17292436301E+03 0.  0.
      -24    2    5    5    0    0 -0.12980206962E+03  0.56895812517E+02  0.80719009162E+03  0.82348485306E+03  0.80534144692E+02 0.  0.
        5    1    3    3  501    0  0.15971457531E+02  0.41661309236E+02 -0.20583602901E+02  0.49361187701E+02  0.47000000000E+01 0. -1.
        4    1    4    4  502    0  0.67471340433E+02  0.30214106368E+01  0.60660412718E+02  0.90781035316E+02  0.00000000000E+00 0. -1.
       -3    1    4    4    0  502  0.30296089024E+02 -0.65189194105E+02  0.40046547268E+02  0.82287362251E+02  0.00000000000E+00 0.  1.
       -5    1    5    5    0  503  0.16063182635E+02 -0.36389338285E+02  0.34612010247E+03  0.34842994290E+03  0.47000000000E+01 0.  1.
       11    1    6    6    0    0  0.11436878402E+02  0.33442114984E+01  0.64029090540E+02  0.65128414487E+02  0.00000000000E+00 0. -1.
      -12    1    6    6    0    0 -0.14123894802E+03  0.53551601019E+02  0.74316100108E+03  0.75835643858E+03  0.00000000000E+00 0.  1.
</event>
<event>
12   0  0.1544783E-01  0.1924356E+03  0.7957747E-01  0.1162305E+00
        1   -1    0    0  502    0  0.00000000000E+00  0.00000000000E+00  0.21070129280E+03  0.21070129280E+03  0.00000000000E+00 0. -1.
       -1   -1    0    0    0  501  0.00000000000E+00  0.00000000000E+00 -0.17610347888E+03  0.17610347888E+03  0.00000000000E+00 0.  1.
        6    2    1    2  502    0  0.43753762301E+02  0.76992950137E+02  0.95233692695E+01  0.19576734130E+03  0.17433258810E+03 0.  0.
       24    2    3    3    0    0 -0.36457296875E+02  0.48362787318E+02 -0.24903821192E+02  0.10378461640E+03  0.80516784581E+02 0.  0.
       -6    2    1    2    0  501 -0.43753762301E+02 -0.76992950137E+02  0.25074444650E+02  0.19103743038E+03  0.16740449799E+03 0.  0.
      -24    2    5    5    0    0 -0.69674089379E+02  0.33556734762E+01  0.50874925648E+01  0.10415053306E+03  0.77173257551E+02 0.  0.
        5    1    3    3  502    0  0.80211059175E+02  0.28630162819E+02  0.34427190462E+02  0.91982724901E+02  0.47000000000E+01 0. -1.
      -13    1    4    4    0    0 -0.10564741455E+00  0.47734799169E+02 -0.42024790463E+02  0.63597997033E+02  0.00000000000E+00 0.  1.
       14    1    4    4    0    0 -0.36351649460E+02  0.62798814855E+00  0.17120969271E+02  0.40186619370E+02  0.00000000000E+00 0. -1.
       -5    1    5    5    0  501  0.25920327079E+02 -0.80348623613E+02  0.19986952085E+02  0.86886897320E+02  0.47000000000E+01 0.  1.
        3    1    6    6  503    0 -0.51194780634E+02 -0.18060442257E+02  0.33715735516E+02  0.63904897779E+02  0.00000000000E+00 0. -1.
       -4    1    6    6    0  503 -0.18479308745E+02  0.21416115733E+02 -0.28628242952E+02  0.40245635282E+02  0.00000000000E+00 0.  1.
</event>
<event>
12   0  0.1544783E-01  0.1800904E+03  0.7957747E-01  0.1173339E+00
       21   -1    0    0  501  503  0.00000000000E+00  0.00000000000E+00  0.63665220803E+02  0.63665220803E+02  0.00000000000E+00 0.  1.
       21   -1    0    0  503  504  0.00000000000E+00  0.00000000000E+00 -0.56070993419E+03  0.56070993419E+03  0.00000000000E+00 0.  1.
        6    2    1    2  501    0 -0.20957988892E+01  0.50379021124E+02 -0.15323730665E+03  0.23646189497E+03  0.17288758625E+03 0.  0.
       24    2    3    3    0    0  0.16750643778E+02  0.24957163897E+01 -0.16419611223E+03  0.18363969610E+03  0.80475847600E+02 0.  0.
       -6    2    1    2    0  504  0.20957988892E+01 -0.50379021124E+02 -0.34380740673E+03  0.38791326002E+03  0.17242600219E+03 0.  0.
      -24    2    5    5    0    0  0.65832708179E+02 -0.86753982653E+01 -0.19231927918E+03  0.21828917991E+03  0.79083834743E+02 0.  0.
        5    1    3    3  501    0 -0.18846442667E+02  0.47883304735E+02  0.10958805576E+02  0.52822198867E+02  0.47000000000E+01 0. -1.
        2    1    4    4  502    0 -0.14559449457E+02  0.18456220883E+02 -0.13753004789E+03  0.13952463485E+03  0.00000000000E+00 0. -1.
       -1    1    4    4    0  502  0.31310093235E+02 -0.15960504493E+02 -0.26666064339E+02  0.44115061253E+02  0.00000000000E+00 0.  1.
       -5    1    5    5    0  504 -0.63736909289E+02 -0.41703622859E+02 -0.15148812755E+03  0.16962408011E+03  0.47000000000E+01 0.  1.
       13    1    6    6    0    0  0.57546067934E+02  0.11979313364E+02 -0.59571496547E+02  0.83688810985E+02  0.00000000000E+00 0. -1.
      -14    1    6    6    0    0  0.82866402450E+01 -0.20654711629E+02 -0.13274778264E+03  0.13460036892E+03  0.00000000000E+00 0.  1.
</event>
<event>
12   0  0.1544783E-01  0.1911757E+03  0.7957747E-01  0.1163389E+00
       21   -1    0    0  504  503  0.00000000000E+00  0.00000000000E+00  0.44848297498E+03  0.44848297498E+03  0.00000000000E+00 0.  1.
       21   -1    0    0  501  504  0.00000000000E+00  0.00000000000E+00 -0.14401736189E+03  0.14401736189E+03  0.00000000000E+00 0.  1.
        6    2    1    2  501    0  0.55362849873E+02 -0.38948262649E+02 -0.48058694609E+02  0.19147473898E+03  0.17254253166E+03 0.  0.
       24    2    3    3    0    0  0.74565439868E+02 -0.45635518421E+02 -0.86944059181E+02  0.14734288619E+03  0.80672494204E+02 0.  0.
       -6    2    1    2    0  503 -0.55362849873E+02  0.38948262649E+02  0.35252430770E+03  0.40102559788E+03  0.17879074454E+03 0.  0.
      -24    2    5    5    0    0 -0.11461547714E+01 -0.35654218197E+02  0.10668078817E+03  0.13841161069E+03  0.80650148566E+02 0.  0.
        5    1    3    3  501    0 -0.19202589995E+02  0.66872557721E+01  0.38885364572E+02  0.44131852784E+02  0.47000000000E+01 0. -1.
      -11    1    4    4    0    0  0.25599885321E+02  0.15793720752E+02  0.11567263053E+00  0.30080045275E+02  0.00000000000E+00 0.  1.
       12    1    4    4    0    0  0.48965554547E+02 -0.61429239173E+02 -0.87059731811E+02  0.11726284092E+03  0.00000000000E+00 0. -1.
       -5    1    5    5    0  503 -0.54216695101E+02  0.74602480846E+02  0.24584351953E+03  0.26261398719E+03  0.47000000000E+01 0.  1.
        3    1    6    6  502    0  0.36007396877E+02 -0.32954514973E+02  0.45195021610E+02  0.66521595480E+02  0.00000000000E+00 0. -1.
       -4    1    6    6    0  502 -0.37153551648E+02 -0.26997032236E+01  0.61485766562E+02  0.71890015213E+02  0.00000000000E+00 0.  1.
</event>
<event>
12   0  0.1544783E-01  0.2144529E+03  0.7957747E-01  0.1144719E+00
       21   -1    0    0  504  503  0.00000000000E+00  0.00000000000E+00  0.90014411857E+02  0.90014411857E+02  0.00000000000E+00 0.  1.
       21   -1    0    0  501  504  0.00000000000E+00  0.00000000000E+00 -0.50836426094E+03  0.50836426094E+03  0.00000000000E+00 0. -1.
        6    2    1    2  501    0 -0.24643353205E+02 -0.12345577896E+03 -0.22723087051E+03  0.31112177243E+03  0.17121408981E+03 0.  0.
       24    2    3    3    0    0 -0.44618245593E+02 -0.15128748310E+03 -0.18278294817E+03  0.25480740586E+03  0.81477098360E+02 0.  0.
       -6    2    1    2    0  503  0.24643353205E+02  0.12345577896E+03 -0.19111897857E+03  0.28725690037E+03  0.17361289878E+03 0.  0.
      -24    2    5    5    0    0  0.80876057661E+02  0.49127354129E+02 -0.10439086027E+03  0.15985718179E+03  0.75514457138E+02 0.  0.
        5    1    3    3  501    0  0.19974892388E+02  0.27831704144E+02 -0.44447922336E+02  0.56314366564E+02  0.47000000000E+01 0. -1.
        2    1    4    4  502    0 -0.13931208412E+02 -0.89051732095E+02 -0.45463466373E+02  0.10095155438E+03  0.00000000000E+00 0. -1.
       -1    1    4    4    0  502 -0.30687037182E+02 -0.62235751008E+02 -0.13731948180E+03  0.15385585148E+03  0.00000000000E+00 0.  1.
       -5    1    5    5    0  503 -0.56232704456E+02  0.74328424830E+02 -0.86728118305E+02  0.12739971857E+03  0.47000000000E+01 0.  1.
       11    1    6    6    0    0 -0.13502492981E+02  0.10338707601E+02 -0.57949381519E+01  0.17966287868E+02  0.00000000000E+00 0. -1.
      -12    1    6    6    0    0  0.94378550643E+02  0.38788646528E+02 -0.98595922118E+02  0.14189089393E+03  0.00000000000E+00 0.  1.
</event>
<event>
12   0  0.1544783E-01  0.1867777E+03  0.7957747E-01  0.1167246E+00
       21   -1    0    0  504  503  0.00000000000E+00  0.00000000000E+00  0.30645162477E+03  0.30645162477E+03  0.00000000000E+00 0. -1.
       21   -1    0    0  501  504  0.00000000000E+00  0.00000000000E+00 -0.24943176831E+03  0.24943176831E+03  0.00000000000E+00 0. -1.
        6    2    1    2  501    0 -0.20473380481E+01  0.69939987926E+02 -0.17672966904E+03  0.25713671580E+03  0.17317656073E+03 0.  0.
       24    2    3    3    0    0  0.23354936236E+02  0.53362336329E+02 -0.19721239708E+03  0.22023514105E+03  0.78853001256E+02 0.  0.
       -6    2    1    2    0  503  0.20473380481E+01 -0.69939987926E+02  0.23374952550E+03  0.29874667728E+03  0.17238022802E+03 0.  0.
      -24    2    5    5    0    0  0.54751149110E+02 -0.33549214950E+02  0.69803173059E+02  0.12267147592E+03  0.77798264002E+02 0.  0.
        5    1    3    3  501    0 -0.25402274284E+02  0.16577651597E+02  0.20482728034E+02  0.36901574750E+02  0.47000000000E+01 0. -1.
      -11    1    4    4    0    0  0.26230884421E+02 -0.19464205993E+00 -0.14837403189E+02  0.30137115264E+02  0.00000000000E+00 0.  1.
       12    1    4    4    0    0 -0.28759481842E+01  0.53556978389E+02 -0.18237499389E+03  0.19009802579E+03  0.00000000000E+00 0. -1.
       -5    1    5    5    0  503 -0.52703811062E+02 -0.36390772976E+02  0.16394635244E+03  0.17607520137E+03  0.47000000000E+01 0.  1.
        1    1    6    6  502    0  0.44421710920E+02 -0.57764597585E+02  0.60623402504E+02  0.94790474555E+02  0.00000000000E+00 0. -1.
       -2    1    6    6    0  502  0.10329438189E+02  0.24215382635E+02  0.91797705548E+01  0.27881001361E+02  0.00000000000E+00 0.  1.
</event>
<event>
12   0  0.1544783E-01  0.1746331E+03  0.7957747E-01  0.1178531E+00
        2   -1    0    0  502    0  0.00000000000E+00  0.00000000000E+00  0.17623471482E+03  0.17623471482E+03  0.00000000000E+00 0. -1.
       -2   -1    0    0    0  501  0.00000000000E+00  0.00000000000E+00 -0.17545507404E+03  0.17545507404E+03  0.00000000000E+00 0.  1.
        6    2    1    2  502    0 -0.13102720008E+02  0.15639589932E+02  0.20986123350E+02  0.17536047111E+03  0.17290054774E+03 0.  0.
       24    2    3    3    0    0  0.35962148654E+02  0.61258591747E+02  0.49604240062E+01  0.10631434375E+03  0.78944554480E+02 0.  0.
       -6    2    1    2    0  501  0.13102720008E+02 -0.15639589932E+02 -0.20206482572E+02  0.17632931775E+03  0.17397542446E+03 0.  0.
      -24    2    5    5    0    0  0.88596215132E+01  0.45038530778E+02  0.10657792733E+02  0.10795877067E+03  0.97131588428E+02 0.  0.
        5    1    3    3  502    0 -0.49064868662E+02 -0.45619001815E+02  0.16025699344E+02  0.69046127356E+02  0.47000000000E+01 0. -1.
        4    1    4    4  503    0 -0.63540884151E+01  0.19473717970E+02  0.34338400923E+02  0.39984070692E+02  0.00000000000E+00 0. -1.
       -3    1    4    4    0  503  0.42316237069E+02  0.41784873777E+02 -0.29377976917E+02  0.66330273058E+02  0.00000000000E+00 0.  1.
       -5    1    5    5    0  501  0.42430984952E+01 -0.60678120710E+02 -0.30864275305E+02  0.68370547079E+02  0.47000000000E+01 0.  1.
       11    1    6    6    0    0 -0.81782422332E+01  0.59910223024E+02 -0.25247116981E+02  0.65525074473E+02  0.00000000000E+00 0. -1.
      -12    1    6    6    0    0  0.17037863746E+02 -0.14871692247E+02  0.35904909714E+02  0.42433696197E+02  0.00000000000E+00 0.  1.
</event>
<event>
12   0  0.1544783E-01  0.2701641E+03  0.7957747E-01  0.1108947E+00
       21   -1    0    0  501  503  0.00000000000E+00  0.00000000000E+00  0.60093241403E+03  0.60093241403E+03  0.00000000000E+00 0. -1.
       21   -1    0    0  503  504  0.00000000000E+00  0.00000000000E+00 -0.12041709631E+03  0.12041709631E+03  0.00000000000E+00 0.  1.
        6    2    1    2  501    0 -0.75402752607E+02 -0.18477697586E+03  0.28035780585E+03  0.38511790252E+03  0.17287913012E+03 0.  0.
       24    2    3    3    0    0  0.34690405635E+01 -0.13014799670E+03  0.10160859220E+03  0.18219314675E+03  0.76938296225E+02 0.  0.
       -6    2    1    2    0  504  0.75402752607E+02  0.18477697586E+03  0.20015751186E+03  0.33623160782E+03  0.18210040812E+03 0.  0.
      -24    2    5    5    0    0  0.60600118784E+02  0.85481515221E+02  0.19475289527E+03  0.23558367515E+03  0.81188139152E+02 0.  0.
        5    1    3    3  501    0 -0.78871793171E+02 -0.54628979155E+02  0.17874921366E+03  0.20292475577E+03  0.47000000000E+01 0. -1.
        4    1    4    4  502    0  0.26484142160E+02 -0.51617444943E+02  0.91689474513E+01  0.58735338645E+02  0.00000000000E+00 0. -1.
       -3    1    4    4    0  502 -0.23015101596E+02 -0.78530551760E+02  0.92439644747E+02  0.12345780810E+03  0.00000000000E+00 0.  1.
       -5    1    5    5    0  504  0.14802633823E+02  0.99295460637E+02  0.54046165934E+01  0.10064793267E+03  0.47000000000E+01 0.  1.
       11    1    6    6    0    0 -0.13304316062E+02  0.46689140947E+02  0.61573407554E+02  0.78410236743E+02  0.00000000000E+00 0. -1.
      -12    1    6    6    0    0  0.73904434846E+02  0.38792374274E+02  0.13317948772E+03  0.15717343841E+03  0.00000000000E+00 0.  1.
</event>
<event>
12   0  0.1544783E-01  0.1992094E+03  0.7957747E-01  0.1156631E+00
       21   -1    0    0  501  503  0.00000000000E+00  0.00000000000E+00  0.27399837573E+02  0.27399837573E+02  0.00000000000E+00 0.  1.
       21   -1    0    0  503  504  0.00000000000E+00  0.00000000000E+00 -0.14514361684E+04  0.14514361684E+04  0.00000000000E+00 0.  1.
        6    2    1    2  501    0 -0.97219530145E+02  0.16097186330E+02 -0.65669646363E+03  0.68605933090E+03  0.17238446486E+03 0.  0.
       24    2    3    3    0    0 -0.11181453430E+03  0.58724298322E+02 -0.43775945393E+03  0.46248475936E+03  0.79421532613E+02 0.  0.
       -6    2    1    2    0  504  0.97219530145E+02 -0.16097186330E+02 -0.76733986715E+03  0.79277667503E+03  0.17312893546E+03 0.  0.
      -24    2    5    5    0    0  0.12401167490E+03 -0.49060992312E+02 -0.58045996626E+03  0.60107216573E+03  0.81043812291E+02 0.  0.
        5    1    3    3  501    0  0.14595004159E+02 -0.42627111992E+02 -0.21893700970E+03  0.22357457154E+03  0.47000000000E+01 0. -1.
      -13    1    4    4    0    0 -0.78419930690E+02 -0.20946870215E+01 -0.20093965212E+03  0.21571002999E+03  0.00000000000E+00 0.  1.
       14    1    4    4    0    0 -0.33394603613E+02  0.60818985344E+02 -0.23681980181E+03  0.24677472937E+03  0.00000000000E+00 0. -1.
       -5    1    5    5    0  504 -0.26792144753E+02  0.32963805982E+02 -0.18687990089E+03  0.19170450929E+03  0.47000000000E+01 0.  1.
        1    1    6    6  502    0  0.55997298366E+02 -0.24312226154E+02 -0.42768510299E+03  0.43202005634E+03  0.00000000000E+00 0. -1.
       -2    1    6    6    0  502  0.68014376532E+02 -0.24748766158E+02 -0.15277486327E+03  0.16905210939E+03  0.00000000000E+00 0.  1.
</event>
<event>
12   0  0.1544783E-01  0.1942891E+03  0.7957747E-01  0.1160727E+00
       -3   -1    0    0    0  501  0.00000000000E+00  0.00000000000E+00  0.13211050508E+03  0.13211050508E+03  0.00000000000E+00 0.  1.
        3   -1    0    0  502    0  0.00000000000E+00  0.00000000000E+00 -0.30792122680E+03  0.30792122680E+03  0.00000000000E+00 0. -1.
        6    2    1    2  502    0  0.79065258479E+02 -0.30030112564E+02 -0.29712951105E+02  0.19850476324E+03  0.17711058355E+03 0.  0.
       24    2    3    3    0    0  0.44039929333E+02 -0.83354710103E+02 -0.43734248421E+02  0.13301451081E+03  0.83022000272E+02 0.  0.
       -6    2    1    2    0  501 -0.79065258479E+02  0.30030112564E+02 -0.14609777061E+03  0.24152696864E+03  0.17273562239E+03 0.  0.
      -24    2    5    5    0    0 -0.42844592142E+02  0.58066411607E+02 -0.15873759019E+03  0.19377944752E+03  0.84530967749E+02 0.  0.
        5    1    3    3  502    0  0.35025329146E+02  0.53324597539E+02  0.14021297316E+02  0.65490252427E+02  0.47000000000E+01 0. -1.
        4    1    4    4  503    0  0.16719273992E+02 -0.71716571389E+02 -0.63586585883E+02  0.97293651586E+02  0.00000000000E+00 0. -1.
       -3    1    4    4    0  503  0.27320655341E+02 -0.11638138714E+02  0.19852337462E+02  0.35720859224E+02  0.00000000000E+00 0.  1.
       -5    1    5    5    0  501 -0.36220666337E+02 -0.28036299044E+02  0.12639819582E+02  0.47747521119E+02  0.47000000000E+01 0.  1.
       11    1    6    6    0    0 -0.62453355960E+02  0.35316718460E+02 -0.14272369328E+03  0.15974274599E+03  0.00000000000E+00 0. -1.
      -12    1    6    6    0    0  0.19608763818E+02  0.22749693147E+02 -0.16013896916E+02  0.34036701532E+02  0.00000000000E+00 0.  1.
</event>
<event>
12   0  0.1544783E-01  0.1838177E+03  0.7957747E-01  0.1169907E+00
       21   -1    0    0  501  503  0.00000000000E+00  0.00000000000E+00  0.16331377909E+03  0.16331377909E+03  0.00000000000E+00 0.  1.
       21   -1    0    0  503  504  0.00000000000E+00  0.00000000000E+00 -0.46171012027E+03  0.46171012027E+03  0.00000000000E+00 0.  1.
        6    2    1    2  501    0 -0.58247056797E+02  0.79456694264E+01  0.83306209399E+02  0.20181392434E+03  0.17416395220E+03 0.  0.
       24    2    3    3    0    0 -0.55819655787E+02  0.63905764882E+02  0.88612342116E+02  0.14535447337E+03  0.77948668985E+02 0.  0.
       -6    2    1    2    0  504  0.58247056797E+02 -0.79456694264E+01 -0.38170255058E+03  0.42320997503E+03  0.17307221774E+03 0.  0.
      -24    2    5    5    0    0 -0.33845795217E+02  0.11886753341E+02 -0.17940482247E+03  0.20000406296E+03  0.80800384370E+02 0.  0.
        5    1    3    3  501    0 -0.24274010095E+01 -0.55960095456E+02 -0.53061327172E+01  0.56459450967E+02  0.47000000000E+01 0. -1.
        4    1    4    4  502    0 -0.64310015533E+01  0.65119165232E+02  0.44602442668E+02  0.79191169669E+02  0.00000000000E+00 0. -1.
       -3    1    4    4    0  502 -0.49388654234E+02 -0.12134003504E+01  0.44009899448E+02  0.66163303703E+02  0.00000000000E+00 0.  1.
       -5    1    5    5    0  504  0.92092852014E+02 -0.19832422767E+02 -0.20229772811E+03  0.22320591207E+03  0.47000000000E+01 0.  1.
       11    1    6    6    0    0  0.11626509597E+02 -0.11814661317E+02 -0.37194598025E+01  0.16988123165E+02  0.00000000000E+00 0. -1.
      -12    1    6    6    0    0 -0.45472304814E+02  0.23701414658E+02 -0.17568536267E+03  0.18301593979E+03  0.00000000000E+00 0.  1.
</event>
<event>
12   0  0.1544783E-01  0.2190145E+03  0.7957747E-01  0.1141363E+00
       21   -1    0    0  501  503  0.00000000000E+00  0.00000000000E+00  0.21200246433E+03  0.21200246433E+03  0.00000000000E+00 0.  1.
       21   -1    0    0  503  504  0.00000000000E+00  0.00000000000E+00 -0.36228636101E+03  0.36228636101E+03  0.00000000000E+00 0. -1.
        6    2    1    2  501    0 -0.10693693122E+03  0.78038343967E+02  0.10112626690E+03  0.24123407474E+03  0.17447597706E+03 0.  0.
       24    2    3    3    0    0 -0.10565112378E+03  0.70501532570E+01  0.19745986313E+02  0.13313311920E+03  0.78247420621E+02 0.  0.
       -6    2    1    2    0  504  0.10693693122E+03 -0.78038343967E+02 -0.25141016357E+03  0.33305475060E+03  0.17376106054E+03 0.  0.
      -24    2    5    5    0    0  0.59363566388E+02 -0.11906328098E+03 -0.17100465664E+03  0.23091070504E+03  0.79856516446E+02 0.  0.
        5    1    3    3  501    0 -0.12858074356E+01  0.70988190710E+02  0.81380280589E+02  0.10810095554E+03  0.47000000000E+01 0. -1.
      -13    1    4    4    0    0 -0.79463239007E+02  0.39157892295E+02  0.23143776349E+02  0.91560806387E+02  0.00000000000E+00 0.  1.
       14    1    4    4    0    0 -0.26187884777E+02 -0.32107739038E+02 -0.33977900361E+01  0.41572312810E+02  0.00000000000E+00 0. -1.
       -5    1    5    5    0  504  0.47573364832E+02  0.41024937009E+02 -0.80405506936E+02  0.10214404556E+03  0.47000000000E+01 0.  1.
        3    1    6    6  502    0  0.24341083373E+02 -0.64084726404E+02 -0.14563408135E+03  0.16096156731E+03  0.00000000000E+00 0. -1.
       -4    1    6    6    0  502  0.35022483015E+02 -0.54978554572E+02 -0.25370575284E+02  0.69949137733E+02  0.00000000000E+00 0.  1.
</event>
<event>
12   0  0.1544783E-01  0.2195943E+03  0.7957747E-01  0.1140943E+00
       21   -1    0    0  504  503  0.00000000000E+00  0.00000000000E+00  0.21301609906E+03  0.21301609906E+03  0.00000000000E+00 0. -1.
       21   -1    0    0  501  504  0.00000000000E+00  0.00000000000E+00 -0.22692657388E+03  0.22692657388E+03  0.00000000000E+00 0. -1.
        6    2    1    2  501    0  0.10843144807E+03 -0.79383788123E+02 -0.24623086013E+02  0.22008723089E+03  0.17254833551E+03 0.  0.
       24    2    3    3    0    0  0.52472355736E+02 -0.42372707091E+02  0.50607033021E+02  0.11917686996E+03  0.84221494398E+02 0.  0.
       -6    2    1    2    0  503 -0.10843144807E+03  0.79383788123E+02  0.10712611191E+02  0.21985544204E+03  0.17367351729E+03 0.  0.
      -24    2    5    5    0    0 -0.88777007935E+02  0.37152906274E+02  0.70499556648E+02  0.14391919743E+03  0.80503741023E+02 0.  0.
        5    1    3    3  501    0  0.55959092338E+02 -0.37011081031E+02 -0.75230119034E+02  0.10091036094E+03  0.47000000000E+01 0. -1.
      -11    1    4    4    0    0 -0.10291952781E+02  0.24693949274E+01 -0.14695076362E+02  0.18109872242E+02  0.00000000000E+00 0.  1.
       12    1    4    4    0    0  0.62764308517E+02 -0.44842102019E+02  0.65302109382E+02  0.10106699771E+03  0.00000000000E+00 0. -1.
       -5    1    5    5    0  503 -0.19654440139E+02  0.42230881849E+02 -0.59786945457E+02  0.75936244613E+02  0.47000000000E+01 0.  1.
        3    1    6    6  502    0 -0.26206398231E+02  0.23351127969E+01  0.67279800295E+02  0.72241259594E+02  0.00000000000E+00 0. -1.
       -4    1    6    6    0  502 -0.62570609703E+02  0.34817793477E+02  0.32197563528E+01  0.71677937835E+02  0.00000000000E+00 0.  1.
</event>
<event>
12   0  0.1544783E-01  0.2182860E+03  0.7957747E-01  0.1141893E+00
       21   -1    0    0  504  503  0.00000000000E+00  0.00000000000E+00  0.33857911277E+03  0.33857911277E+03  0.00000000000E+00 0. -1.
       21   -1    0    0  501  504  0.00000000000E+00  0.00000000000E+00 -0.18431976298E+03  0.18431976298E+03  0.00000000000E+00 0.  1.
        6    2    1    2  501    0  0.22296843397E+01  0.13191238673E+03 -0.50805651507E+02  0.22412044009E+03  0.17390488255E+03 0.  0.
       24    2    3    3    0    0 -0.25648652002E+02  0.29589555272E+02 -0.73746203227E+02  0.11551324701E+03  0.79821128869E+02 0.  0.
       -6    2    1    2    0  503 -0.22296843397E+01 -0.13191238673E+03  0.20506500130E+03  0.29877843567E+03  0.17265876635E+03 0.  0.
      -24    2    5    5    0    0  0.98984739407E+01 -0.10468508377E+03  0.22660550874E+03  0.26170416278E+03  0.77987599472E+02 0.  0.
        5    1    3    3  501    0  0.27878336342E+02  0.10232283146E+03  0.22940551720E+02  0.10860719308E+03  0.47000000000E+01 0. -1.
        4    1    4    4  502    0 -0.25465503966E+02  0.53590096174E+02 -0.69079659705E+02  0.91062559184E+02  0.00000000000E+00 0. -1.
       -3    1    4    4    0  502 -0.18314803660E+00 -0.24000540902E+02 -0.46665435217E+01  0.24450687827E+02  0.00000000000E+00 0.  1.
       -5    1    5    5    0  503 -0.12128158280E+02 -0.27227302959E+02 -0.21540507441E+02  0.37074272892E+02  0.47000000000E+01 0.  1.
       13    1    6    6    0    0  0.34625483568E+02 -0.84521743970E+02  0.20104941875E+03  0.22082508484E+03  0.00000000000E+00 0. -1.
      -14    1    6    6    0    0 -0.24727009627E+02 -0.20163339800E+02  0.25556089993E+02  0.40879077934E+02  0.00000000000E+00 0.  1.
</event>
<event>
12   0  0.1544783E-01  0.1757840E+03  0.7957747E-01  0.1177418E+00
       21   -1    0    0  501  503  0.00000000000E+00  0.00000000000E+00  0.14647419171E+03  0.14647419171E+03  0.00000000000E+00 0.  1.
       21   -1    0    0  503  504  0.00000000000E+00  0.00000000000E+00 -0.34206876534E+03  0.34206876534E+03  0.00000000000E+00 0.  1.
        6    2    1    2  501    0 -0.26878722619E+02  0.20966420005E+00  0.54184477998E+02  0.18394560536E+03  0.17371677635E+03 0.  0.
       24    2    3    3    0    0 -0.79756726079E+02  0.26443432744E+02  0.33820326897E+02  0.12132705769E+03  0.80722053527E+02 0.  0.
       -6    2    1    2    0  504  0.26878722619E+02 -0.20966420005E+00 -0.24977905163E+03  0.30459735170E+03  0.17224245220E+03 0.  0.
      -24    2    5    5    0    0  0.56295859210E+01 -0.66839724529E+02 -0.14247176930E+03  0.17642546090E+03  0.79551852236E+02 0.  0.
        5    1    3    3  501    0  0.52878003460E+02 -0.26233768544E+02  0.20364151101E+02  0.62618547668E+02  0.47000000000E+01 0. -1.
      -11    1    4    4    0    0  0.53578869744E+01 -0.18001306774E+02 -0.19012623365E+01  0.18877732832E+02  0.00000000000E+00 0.  1.
       12    1    4    4    0    0 -0.85114613053E+02  0.44444739518E+02  0.35721589233E+02  0.10244932486E+03  0.00000000000E+00 0. -1.
       -5    1    5    5    0  504  0.21249136698E+02  0.66630060329E+02 -0.10730728233E+03  0.12817189080E+03  0.47000000000E+01 0.  1.
        3    1    6    6  502    0  0.23653685106E+02 -0.54278292588E+02 -0.39591973603E+02  0.71226078364E+02  0.00000000000E+00 0. -1.
       -4    1    6    6    0  502 -0.18024099185E+02 -0.12561431941E+02 -0.10287979569E+03  0.10519938253E+03  0.00000000000E+00 0.  1.
</event>
<event>
12   0  0.1544783E-01  0.1738016E+03  0.7957747E-01  0.1179340E+00
       21   -1    0    0  504  503  0.00000000000E+00  0.00000000000E+00  0.11914823880E+03  0.11914823880E+03  0.00000000000E+00 0. -1.
       21   -1    0    0  501  504  0.00000000000E+00  0.00000000000E+00 -0.31072576959E+03  0.31072576959E+03  0.00000000000E+00 0. -1.
        6    2    1    2  501    0  0.56047216030E+01  0.16190382766E+02 -0.19074445956E+03  0.25805124069E+03  0.17295505939E+03 0.  0.
       24    2    3    3    0    0 -0.21429065546E+02 -0.24475642572E+02 -0.47962618062E+02  0.10707675434E+03  0.90037529175E+02 0.  0.
       -6    2    1    2    0  503 -0.56047216030E+01 -0.16190382766E+02 -0.83307121949E+00  0.17182276770E+03  0.17096440592E+03 0.  0.
      -24    2    5    5    0    0 -0.36775852195E+02  0.27029474222E+02  0.44805052776E+02  0.10150545985E+03  0.78821379362E+02 0.  0.
        5    1    3    3  501    0  0.27033787149E+02  0.40666025338E+02 -0.14278184150E+03  0.15097448635E+03  0.47000000000E+01 0. -1.
        2    1    4    4  502    0 -0.30110837172E+02  0.19251769197E+02 -0.51131116321E+02  0.62383364678E+02  0.00000000000E+00 0. -1.
       -1    1    4    4    0  502  0.86817716256E+01 -0.43727411769E+02  0.31684982587E+01  0.44693389666E+02  0.00000000000E+00 0.  1.
       -5    1    5    5    0  503  0.31171130592E+02 -0.43219856988E+02 -0.45638123996E+02  0.70317307843E+02  0.47000000000E+01 0.  1.
       13    1    6    6    0    0  0.23347460446E+02  0.21885559076E+01  0.23127147049E+02  0.32935673925E+02  0.00000000000E+00 0. -1.
      -14    1    6    6    0    0 -0.60123312641E+02  0.24840918315E+02  0.21677905728E+02  0.68569785930E+02  0.00000000000E+00 0.  1.
</event>
<event>
12   0  0.1544783E-01  0.1798225E+03  0.7957747E-01  0.1173589E+00
       21   -1    0    0  501  503  0.00000000000E+00  0.00000000000E+00  0.83697301231E+03  0.83697301231E+03  0.00000000000E+00 0.  1.
       21   -1    0    0  503  504  0.00000000000E+00  0.00000000000E+00 -0.49781988377E+02  0.49781988377E+02  0.00000000000E+00 0.  1.
        6    2    1    2  501    0 -0.20503504637E+02 -0.37274771032E+02  0.60782101811E+03  0.63276734643E+03  0.17069950907E+03 0.  0.
       24    2    3    3    0    0  0.11759904674E+01 -0.39044154287E+02  0.60343457924E+03  0.61008559008E+03  0.80903070789E+02 0.  0.
       -6    2    1    2    0  504  0.20503504637E+02  0.37274771032E+02  0.17937000583E+03  0.25398765426E+03  0.17471785045E+03 0.  0.
      -24    2    5    5    0    0  0.32017764272E+02  0.74193354517E+02  0.16071616216E+03  0.21079487864E+03  0.10988632764E+03 0.  0.
        5    1    3    3  501    0 -0.21679495105E+02  0.17693832545E+01  0.43864388638E+01  0.22681756347E+02  0.47000000000E+01 0. -1.
        4    1    4    4  502    0 -0.37008179333E+02 -0.29385288027E+02  0.40754501065E+03  0.41027556129E+03  0.00000000000E+00 0. -1.
       -3    1    4    4    0  502  0.38184169801E+02 -0.96588662600E+01  0.19588956859E+03  0.19981002879E+03  0.00000000000E+00 0.  1.
       -5    1    5    5    0  504 -0.11514259635E+02 -0.36918583485E+02  0.18653843672E+02  0.43192775613E+02  0.47000000000E+01 0.  1.
       11    1    6    6    0    0  0.66333912477E+02  0.16663875808E+02  0.94030952538E+02  0.11627421355E+03  0.00000000000E+00 0. -1.
      -12    1    6    6    0    0 -0.34316148205E+02  0.57529478710E+02  0.66685209617E+02  0.94520665094E+02  0.00000000000E+00 0.  1.
</event>
<event>
12   0  0.1544783E-01  0.1857662E+03  0.7957747E-01  0.1168149E+00
       21   -1    0    0  501  503  0.00000000000E+00  0.00000000000E+00  0.76027454987E+02  0.76027454987E+02  0.00000000000E+00 0. -1.
       21   -1    0    0  503  504  0.00000000000E+00  0.00000000000E+00 -0.44983850128E+03  0.44983850128E+03  0.00000000000E+00 0. -1.
        6    2    1    2  501    0 -0.16165613679E+02 -0.62973979691E+02 -0.17593394252E+03  0.25445400976E+03  0.17195069574E+03 0.  0.
       24    2    3    3    0    0  0.55231585916E+02 -0.46420033766E+02 -0.12507016762E+03  0.16511864815E+03  0.80101644936E+02 0.  0.
       -6    2    1    2    0  504  0.16165613679E+02  0.62973979691E+02 -0.19787710377E+03  0.27141194651E+03  0.17401737651E+03 0.  0.
      -24    2    5    5    0    0  0.17703323489E+02 -0.17880245447E+02 -0.15789257633E+03  0.18107578150E+03  0.85001542028E+02 0.  0.
        5    1    3    3  501    0 -0.71397199595E+02 -0.16553945925E+02 -0.50863774900E+02  0.89335361603E+02  0.47000000000E+01 0. -1.
      -13    1    4    4    0    0 -0.17378867705E+02  0.37698398109E+01 -0.33529338595E+02  0.37953303961E+02  0.00000000000E+00 0.  1.
       14    1    4    4    0    0  0.72610453621E+02 -0.50189873577E+02 -0.91540829029E+02  0.12716534419E+03  0.00000000000E+00 0. -1.
       -5    1    5    5    0  504 -0.15377098104E+01  0.80854225138E+02 -0.39984527446E+02  0.90336165012E+02  0.47000000000E+01 0.  1.
        3    1    6    6  502    0 -0.28733346633E+02  0.52926854464E+01 -0.25156059058E+02  0.38554442485E+02  0.00000000000E+00 0. -1.
       -4    1    6    6    0  502  0.46436670123E+02 -0.23172930894E+02 -0.13273651727E+03  0.14252133902E+03  0.00000000000E+00 0.  1.
</event>
<event>
12   0  0.1544783E-01  0.1745725E+03  0.7957747E-01  0.1178590E+00
       21   -1    0    0  504  503  0.00000000000E+00  0.00000000000E+00  0.75103936718E+02  0.75103936718E+02  0.00000000000E+00 0.  1.
       21   -1    0    0  501  504  0.00000000000E+00  0.00000000000E+00 -0.74294717913E+03  0.74294717913E+03  0.00000000000E+00 0.  1.
        6    2    1    2  501    0  0.71229543078E+01 -0.17759978318E+02 -0.60980823459E+03  0.63408475475E+03  0.17271722532E+03 0.  0.
       24    2    3    3    0    0 -0.72779246931E+01  0.51702913572E+02 -0.27490420612E+03  0.29171758788E+03  0.82466169279E+02 0.  0.
       -6    2    1    2    0  503 -0.71229543078E+01  0.17759978318E+02 -0.58035007826E+02  0.18396636110E+03  0.17352062291E+03 0.  0.
      -24    2    5    5    0    0  0.43772875765E+02 -0.18100234730E+02 -0.76292877025E+02  0.11891422673E+03  0.77950670839E+02 0.  0.
        5    1    3    3  501    0  0.14400879001E+02 -0.69462891890E+02 -0.33490402847E+03  0.34236716687E+03  0.47000000000E+01 0. -1.
      -13    1    4    4    0    0 -0.21682358378E+01 -0.22551218789E+02 -0.52177141139E+02  0.56883325966E+02  0.00000000000E+00 0.  1.
       14    1    4    4    0    0 -0.51096888553E+01  0.74254132361E+02 -0.22272706498E+03  0.23483426191E+03  0.00000000000E+00 0. -1.
       -5    1    5    5    0  503 -0.50895830073E+02  0.35860213048E+02  0.18257869200E+02  0.65052134372E+02  0.47000000000E+01 0.  1.
        1    1    6    6  502    0  0.35538888645E+02  0.26602771709E+02 -0.27457518976E+02  0.52198040356E+02  0.00000000000E+00 0. -1.
       -2    1    6    6    0  502  0.82339871199E+01 -0.44703006439E+02 -0.48835358050E+02  0.66716186375E+02  0.00000000000E+00 0.  1.
</event>
<event>
12   0  0.1544783E-01  0.1991282E+03  0.7957747E-01  0.1156697E+00
       21   -1    0    0  501  503  0.00000000000E+00  0.00000000000E+00  0.23819212223E+03  0.23819212223E+03  0.00000000000E+00 0.  1.
       21   -1    0    0  503  504  0.00000000000E+00  0.00000000000E+00 -0.33308618030E+03  0.33308618030E+03  0.00000000000E+00 0.  1.
        6    2    1    2  501    0  0.51673411814E+02 -0.50206506160E+02  0.16062580338E+03  0.24733007971E+03  0.17372589004E+03 0.  0.
       24    2    3    3    0    0  0.13374216755E+02 -0.32896000048E+02  0.65229716473E+01  0.87529407901E+02  0.79736011911E+02 0.  0.
       -6    2    1    2    0  504 -0.51673411814E+02  0.50206506160E+02 -0.25551986144E+03  0.32394822282E+03  0.18563732579E+03 0.  0.
      -24    2    5    5    0    0 -0.10530689538E+02  0.44311785258E+02 -0.34438272144E+02  0.98944599606E+02  0.80805998961E+02 0.  0.
        5    1    3    3  501    0  0.38299195060E+02 -0.17310506112E+02  0.15410283173E+03  0.15980067181E+03  0.47000000000E+01 0. -1.
      -11    1    4    4    0    0 -0.16603311345E+02 -0.46709089328E+02  0.17766870286E+02  0.52659953031E+02  0.00000000000E+00 0.  1.
       12    1    4    4    0    0  0.29977528099E+02  0.13813089280E+02 -0.11243898639E+02  0.34869454871E+02  0.00000000000E+00 0. -1.
       -5    1    5    5    0  504 -0.41142722276E+02  0.58947209020E+01 -0.22108158930E+03  0.22500362321E+03  0.47000000000E+01 0.  1.
        3    1    6    6  502    0 -0.37409054732E+02  0.41949373268E+02 -0.13143868272E+01  0.56222014427E+02  0.00000000000E+00 0. -1.
       -4    1    6    6    0  502  0.26878365194E+02  0.23624119906E+01 -0.33123885317E+02  0.42722585179E+02  0.00000000000E+00 0.  1.
</event>
<event>
12   0  0.1544783E-01  0.2121559E+03  0.7957747E-01  0.1146443E+00
       21   -1    0    0  504  503  0.00000000000E+00  0.00000000000E+00  0.30570131017E+03  0.30570131017E+03  0.00000000000E+00 0. -1.
       21   -1    0    0  501  504  0.00000000000E+00  0.00000000000E+00 -0.18192470251E+03  0.18192470251E+03  0.00000000000E+00 0. -1.
        6    2    1    2  501    0 -0.59518320158E+02  0.10016256361E+03 -0.48772506009E+02  0.21416058220E+03  0.17294805012E+03 0.  0.
       24    2    3    3    0    0 -0.23656154945E+02 -0.15916050255E+02 -0.99577121338E+01  0.86532146043E+02  0.81090825285E+02 0.  0.
       -6    2    1    2    0  503  0.59518320158E+02 -0.10016256361E+03  0.17254911366E+03  0.27346543048E+03  0.17729967699E+03 0.  0.
      -24    2    5    5    0    0  0.77131444142E+02 -0.43746592893E+01  0.63826194862E+02  0.12742328648E+03  0.78705231520E+02 0.  0.
        5    1    3    3  501    0 -0.35862165214E+02  0.11607861387E+03 -0.38814793876E+02  0.12762843615E+03  0.47000000000E+01 0. -1.
      -11    1    4    4    0    0 -0.12894094767E+02  0.25238583915E+02  0.19839618245E+02  0.34595581365E+02  0.00000000000E+00 0.  1.
       12    1    4    4    0    0 -0.10762060178E+02 -0.41154634170E+02 -0.29797330379E+02  0.51936564678E+02  0.00000000000E+00 0. -1.
       -5    1    5    5    0  503 -0.17613123983E+02 -0.95787904323E+02  0.10872291880E+03  0.14604214400E+03  0.47000000000E+01 0.  1.
        1    1    6    6  502    0  0.24451256000E+02 -0.38291941347E+02  0.39531194847E+02  0.60223351435E+02  0.00000000000E+00 0. -1.
       -2    1    6    6    0  502  0.52680188142E+02  0.33917282057E+02  0.24295000015E+02  0.67199935049E+02  0.00000000000E+00 0.  1.
</event>
<event>
12   0  0.1544783E-01  0.2726938E+03  0.7957747E-01  0.1107551E+00
        2   -1    0    0  502    0  0.00000000000E+00  0.00000000000E+00  0.70060592371E+03  0.70060592371E+03  0.00000000000E+00 0. -1.
       -2   -1    0    0    0  501  0.00000000000E+00  0.00000000000E+00 -0.14876744099E+03  0.14876744099E+03  0.00000000000E+00 0.  1.
        6    2    1    2  502    0  0.10592735067E+03  0.18237795462E+03  0.50360188127E+03  0.57292430438E+03  0.17362339064E+03 0.  0.
       24    2    3    3    0    0  0.56523956304E+02  0.97356545494E+02  0.15449403944E+03  0.21020166845E+03  0.87424702527E+02 0.  0.
       -6    2    1    2    0  501 -0.10592735067E+03 -0.18237795462E+03  0.48236601449E+02  0.27644906032E+03  0.17209006735E+03 0.  0.
      -24    2    5    5    0    0 -0.12891295863E+03 -0.19186191689E+03  0.33025498077E+02  0.24692362418E+03  0.80318407585E+02 0.  0.
        5    1    3    3  502    0  0.49403394369E+02  0.85021409127E+02  0.34910784183E+03  0.36272263593E+03  0.47000000000E+01 0. -1.
      -13    1    4    4    0    0 -0.36093917102E+01  0.17874285374E+02 -0.77310340542E+01  0.19806228154E+02  0.00000000000E+00 0.  1.
       14    1    4    4    0    0  0.60133348014E+02  0.79482260120E+02  0.16222507349E+03  0.19039544030E+03  0.00000000000E+00 0. -1.
       -5    1    5    5    0  501  0.22985607961E+02  0.94839622712E+01  0.15211103372E+02  0.29525436145E+02  0.47000000000E+01 0.  1.
        3    1    6    6  503    0 -0.60740598927E+02 -0.79647743760E+02  0.54260455077E+02  0.11391830594E+03  0.00000000000E+00 0. -1.
       -4    1    6    6    0  503 -0.68172359708E+02 -0.11221417313E+03 -0.21234957001E+02  0.13300531823E+03  0.00000000000E+00 0.  1.
</event>
<event>
12   0  0.1544783E-01  0.1839487E+03  0.7957747E-01  0.1169788E+00
        1   -1    0    0  502    0  0.00000000000E+00  0.00000000000E+00  0.64328547095E+03  0.64328547095E+03  0.00000000000E+00 0.  1.
       -1   -1    0    0    0  501  0.00000000000E+00  0.00000000000E+00 -0.53483315949E+02  0.53483315949E+02  0.00000000000E+00 0. -1.
        6    2    1    2  502    0  0.31878085765E+02 -0.54344536963E+02  0.33823992845E+03  0.38460449574E+03  0.17188608990E+03 0.  0.
       24    2    3    3    0    0 -0.22332038775E+02  0.24462862833E+02  0.16083596989E+03  0.18300192042E+03  0.80773399415E+02 0.  0.
       -6    2    1    2    0  501 -0.31878085765E+02  0.54344536963E+02  0.25156222655E+03  0.31216429115E+03  0.17376262485E+03 0.  0.
      -24    2    5    5    0    0  0.43790209553E+02  0.28610690619E+02  0.18328174079E+03  0.20693959586E+03  0.80595569083E+02 0.  0.
        5    1    3    3  502    0  0.54210124540E+02 -0.78807399796E+02  0.17740395856E+03  0.20160257533E+03  0.47000000000E+01 0. -1.
        2    1    4    4  503    0  0.14431660657E+01  0.48686190621E+02  0.64249079983E+02  0.80624885513E+02  0.00000000000E+00 0. -1.
       -1    1    4    4    0  503 -0.23775204841E+02 -0.24223327788E+02  0.96586889903E+02  0.10237703490E+03  0.00000000000E+00 0.  1.
       -5    1    5    5    0  501 -0.75668295319E+02  0.25733846344E+02  0.68280485758E+02  0.10522469529E+03  0.47000000000E+01 0.  1.
       11    1    6    6    0    0  0.53341730863E+02  0.31191072881E+02  0.70590803156E+02  0.93815162789E+02  0.00000000000E+00 0. -1.
      -12    1    6    6    0    0 -0.95515213095E+01 -0.25803822619E+01  0.11269093764E+03  0.11312443307E+03  0.00000000000E+00 0.  1.
</event>
<event>
12   0  0.1544783E-01  0.2171879E+03  0.7957747E-01  0.1142696E+00
        4   -1    0    0  502    0  0.00000000000E+00  0.00000000000E+00  0.71498004880E+02  0.71498004880E+02  0.00000000000E+00 0. -1.
       -4   -1    0    0    0  501  0.00000000000E+00  0.00000000000E+00 -0.66076831752E+03  0.66076831752E+03  0.00000000000E+00 0.  1.
        6    2    1    2  502    0 -0.13053500395E+03 -0.41019258083E+01 -0.30763179462E+03  0.37601973370E+03  0.17232906319E+03 0.  0.
       24    2    3    3    0    0  0.22519889520E+01  0.16411837350E+02 -0.12140960713E+03  0.14633735937E+03  0.79999438658E+02 0.  0.
       -6    2    1    2    0  501  0.13053500395E+03  0.41019258083E+01 -0.28163851802E+03  0.35624658870E+03  0.17474313742E+03 0.  0.
      -24    2    5    5    0    0  0.41694439762E+01  0.34998748897E+02 -0.10476244200E+03  0.13663305385E+03  0.80318898531E+02 0.  0.
        5    1    3    3  502    0 -0.13278699290E+03 -0.20513763159E+02 -0.18622218749E+03  0.22968237433E+03  0.47000000000E+01 0. -1.
        2    1    4    4  503    0 -0.10439417054E+01 -0.32494173858E+02 -0.43862686961E+02  0.54597586543E+02  0.00000000000E+00 0. -1.
       -1    1    4    4    0  503  0.32959306574E+01  0.48906011208E+02 -0.77546920169E+02  0.91739772830E+02  0.00000000000E+00 0.  1.
       -5    1    5    5    0  501  0.12636555997E+03 -0.30896823088E+02 -0.17687607602E+03  0.21961353485E+03  0.47000000000E+01 0.  1.
       13    1    6    6    0    0  0.78649172142E+01 -0.16217745795E+02  0.20284451805E+01  0.18137993035E+02  0.00000000000E+00 0. -1.
      -14    1    6    6    0    0 -0.36954732380E+01  0.51216494692E+02 -0.10679088719E+03  0.11849506081E+03  0.00000000000E+00 0.  1.
</event>
<event>
12   0  0.1544783E-01  0.2063818E+03  0.7957747E-01  0.1150885E+00
       21   -1    0    0  501  503  0.00000000000E+00  0.00000000000E+00  0.20689345094E+03  0.20689345094E+03  0.00000000000E+00 0. -1.
       21   -1    0    0  503  504  0.00000000000E+00  0.00000000000E+00 -0.21041280258E+03  0.21041280258E+03  0.00000000000E+00 0.  1.
        6    2    1    2  501    0  0.88239742589E+02 -0.74333496915E+02  0.30011986192E+02  0.20821826970E+03  0.17071147468E+03 0.  0.
       24    2    3    3    0    0  0.87806904864E+02  0.11811296373E+02  0.21386712353E+02  0.12151418613E+03  0.80366328159E+02 0.  0.
       -6    2    1    2    0  504 -0.88239742589E+02  0.74333496915E+02 -0.33531337835E+02  0.20908798381E+03  0.17111900368E+03 0.  0.
      -24    2    5    5    0    0 -0.10377768342E+01  0.77794254223E+02 -0.50243864567E+02  0.12010732174E+03  0.76474177593E+02 0.  0.
        5    1    3    3  501    0  0.43283772493E+00 -0.86144793288E+02  0.86252738389E+01  0.86704083571E+02  0.47000000000E+01 0. -1.
        2    1    4    4  502    0  0.64439401773E+02 -0.30096806785E+02  0.18269540511E+02  0.73430445934E+02  0.00000000000E+00 0. -1.
       -1    1    4    4    0  502  0.23367503091E+02  0.41908103158E+02  0.31171718418E+01  0.48083740197E+02  0.00000000000E+00 0.  1.
       -5    1    5    5    0  504 -0.87201965755E+02 -0.34607573079E+01  0.16712526731E+02  0.88980662070E+02  0.47000000000E+01 0.  1.
       11    1    6    6    0    0 -0.11601800424E+02  0.87640933990E+02 -0.26456478340E+02  0.92279360259E+02  0.00000000000E+00 0. -1.
      -12    1    6    6    0    0  0.10564023590E+02 -0.98466797663E+01 -0.23787386226E+02  0.27827961483E+02  0.00000000000E+00 0.  1.
</event>
<event>
12   0  0.1544783E-01  0.1905985E+03  0.7957747E-01  0.1163889E+00
       21   -1    0    0  501  503  0.00000000000E+00  0.00000000000E+00  0.18408574030E+03  0.18408574030E+03  0.00000000000E+00 0.  1.
       21   -1    0    0  503  504  0.00000000000E+00  0.00000000000E+00 -0.23702290253E+03  0.23702290253E+03  0.00000000000E+00 0.  1.
        6    2    1    2  501    0  0.84602988292E+02  0.42656961256E+01  0.69698143912E+02  0.19446533173E+03  0.16057108143E+03 0.  0.
       24    2    3    3    0    0  0.28401009071E+02 -0.11520383076E+02  0.97010318442E+02  0.12984406865E+03  0.80679264605E+02 0.  0.
       -6    2    1    2    0  504 -0.84602988292E+02 -0.42656961256E+01 -0.12263530614E+03  0.22664331109E+03  0.17073930526E+03 0.  0.
      -24    2    5    5    0    0 -0.24422513601E+01  0.17018847868E+02 -0.11704399915E+03  0.14145662657E+03  0.77556906141E+02 0.  0.
        5    1    3    3  501    0  0.56201979221E+02  0.15786079202E+02 -0.27312174530E+02  0.64621263083E+02  0.47000000000E+01 0. -1.
      -13    1    4    4    0    0  0.38469889961E+02  0.19907420198E+02  0.83730378471E+02  0.94270961019E+02  0.00000000000E+00 0.  1.
       14    1    4    4    0    0 -0.10068880889E+02 -0.31427803274E+02  0.13279939971E+02  0.35573107632E+02  0.00000000000E+00 0. -1.
       -5    1    5    5    0  504 -0.82160736932E+02 -0.21284543994E+02 -0.55913069968E+01  0.85186684524E+02  0.47000000000E+01 0.  1.
        3    1    6    6  502    0  0.69945820992E+01  0.35273711530E+02 -0.17832486216E+02  0.40139213601E+02  0.00000000000E+00 0. -1.
       -4    1    6    6    0  502 -0.94368334593E+01 -0.18254863662E+02 -0.99211512929E+02  0.10131741297E+03  0.00000000000E+00 0.  1.
</event>
<event>
12   0  0.1544783E-01  0.2100538E+03  0.7957747E-01  0.1148042E+00
       21   -1    0    0  504  503  0.00000000000E+00  0.00000000000E+00  0.43802156972E+03  0.43802156972E+03  0.00000000000E+00 0.  1.
       21   -1    0    0  501  504  0.00000000000E+00  0.00000000000E+00 -0.10118868494E+03  0.10118868494E+03  0.00000000000E+00 0.  1.
        6    2    1    2  501    0  0.98294552524E+02 -0.59522716278E+02  0.10599847049E+03  0.22710913706E+03  0.16473649134E+03 0.  0.
       24    2    3    3    0    0  0.81799139438E+02  0.20792401573E+02  0.48121855476E+02  0.12663819910E+03  0.81228673024E+02 0.  0.
       -6    2    1    2    0  503 -0.98294552524E+02  0.59522716278E+02  0.23083441428E+03  0.31210111760E+03  0.17583460405E+03 0.  0.
      -24    2    5    5    0    0 -0.35099904584E+02 -0.23898254225E+02  0.48266050996E+02  0.10161140498E+03  0.78690126991E+02 0.  0.
        5    1    3    3  501    0  0.16495413086E+02 -0.80315117852E+02  0.57876615013E+02  0.10047093796E+03  0.47000000000E+01 0. -1.
      -13    1    4    4    0    0  0.72341647287E+02  0.29589397343E+02  0.67552462596E+02  0.10330625136E+03  0.00000000000E+00 0.  1.
       14    1    4    4    0    0  0.94574921509E+01 -0.87969957701E+01 -0.19430607120E+02  0.23331947741E+02  0.00000000000E+00 0. -1.
       -5    1    5    5    0  503 -0.63194647940E+02  0.83420970504E+02  0.18256836329E+03  0.21048971263E+03  0.47000000000E+01 0.  1.
        1    1    6    6  502    0 -0.39066179292E+02 -0.45824233939E+02  0.51323261885E+02  0.79120818949E+02  0.00000000000E+00 0. -1.
       -2    1    6    6    0  502  0.39662747084E+01  0.21925979714E+02 -0.30572108892E+01  0.22490586028E+02  0.00000000000E+00 0.  1.
</event>
<event>
12   0  0.1544783E-01  0.2072237E+03  0.7957747E-01  0.1150228E+00
       21   -1    0    0  501  503  0.00000000000E+00  0.00000000000E+00  0.64653302990E+02  0.64653302990E+02  0.00000000000E+00 0. -1.
       21   -1    0    0  503  504  0.00000000000E+00  0.00000000000E+00 -0.85593649740E+03  0.85593649740E+03  0.00000000000E+00 0. -1.
        6    2    1    2  501    0  0.68247246146E+02 -0.88532405293E+02 -0.17244514261E+03  0.26797797488E+03  0.17198602972E+03 0.  0.
       24    2    3    3    0    0  0.40288742699E+02 -0.12721550823E+03 -0.14336531455E+03  0.21189066109E+03  0.80852152228E+02 0.  0.
       -6    2    1    2    0  504 -0.68247246146E+02  0.88532405293E+02 -0.61883805180E+03  0.65261182551E+03  0.17448778479E+03 0.  0.
      -24    2    5    5    0    0 -0.11381014586E+03  0.48895040817E+02 -0.43664190783E+03  0.46061020215E+03  0.78499225077E+02 0.  0.
        5    1    3    3  501    0  0.27958503446E+02  0.38683102939E+02 -0.29079828059E+02  0.56087313788E+02  0.47000000000E+01 0. -1.
        2    1    4    4  502    0  0.42677265912E+02 -0.51540641518E+02 -0.25105733479E+02  0.71470865444E+02  0.00000000000E+00 0. -1.
       -1    1    4    4    0  502 -0.23885232127E+01 -0.75674866715E+02 -0.11825958107E+03  0.14041979565E+03  0.00000000000E+00 0.  1.
       -5    1    5    5    0  504  0.45562899711E+02  0.39637364476E+02 -0.18219614397E+03  0.19200162336E+03  0.47000000000E+01 0.  1.
       13    1    6    6    0    0 -0.59550559342E+02 -0.60454326572E+01 -0.27543561830E+03  0.28186449972E+03  0.00000000000E+00 0. -1.
      -14    1    6    6    0    0 -0.54259586514E+02  0.54940473474E+02 -0.16120628953E+03  0.17874570243E+03  0.00000000000E+00 0.  1.
</event>
<event>
12   0  0.1544783E-01  0.1840489E+03  0.7957747E-01  0.1169698E+00
       21   -1    0    0  504  503  0.00000000000E+00  0.00000000000E+00  0.66175891744E+03  0.66175891744E+03  0.00000000000E+00 0. -1.
       21   -1    0    0  501  504  0.00000000000E+00  0.00000000000E+00 -0.51030789572E+02  0.51030789572E+02  0.00000000000E+00 0.  1.
        6    2    1    2  501    0  0.54810678591E+02  0.23703812967E+02  0.29908727223E+03  0.35117970616E+03  0.17409166659E+03 0.  0.
       24    2    3    3    0    0  0.15582797352E+01  0.33903124849E+02  0.60605238798E+02  0.10656651311E+03  0.80818170211E+02 0.  0.
       -6    2    1    2    0  503 -0.54810678591E+02 -0.23703812967E+02  0.31164085563E+03  0.36161000084E+03  0.17342343721E+03 0.  0.
      -24    2    5    5    0    0 -0.45837055175E+02 -0.82530909019E+02  0.20255712712E+03  0.23726168773E+03  0.79695245455E+02 0.  0.
        5    1    3    3  501    0  0.53252398855E+02 -0.10199311882E+02  0.23848203343E+03  0.24461319305E+03  0.47000000000E+01 0. -1.
        2    1    4    4  502    0 -0.27510723107E+02 -0.78812121031E+01  0.44996595580E+02  0.53325856804E+02  0.00000000000E+00 0. -1.
       -1    1    4    4    0  502  0.29069002842E+02  0.41784336952E+02  0.15608643217E+02  0.53240656305E+02  0.00000000000E+00 0.  1.
       -5    1    5    5    0  503 -0.89736234157E+01  0.58827096052E+02  0.10908372851E+03  0.12434831311E+03  0.47000000000E+01 0.  1.
       11    1    6    6    0    0  0.73283467408E+01 -0.67924110611E+02  0.10750947300E+03  0.12738004652E+03  0.00000000000E+00 0. -1.
      -12    1    6    6    0    0 -0.53165401916E+02 -0.14606798408E+02  0.95047654127E+02  0.10988164121E+03  0.00000000000E+00 0.  1.
</event>
<event>
12   0  0.1544783E-01  0.2350260E+03  0.7957747E-01  0.1130257E+00
       21   -1    0    0  504  503  0.00000000000E+00  0.00000000000E+00  0.20606810525E+03  0.20606810525E+03  0.00000000000E+00 0.  1.
       21   -1    0    0  501  504  0.00000000000E+00  0.00000000000E+00 -0.70497444091E+03  0.70497444091E+03  0.00000000000E+00 0.  1.
        6    2    1    2  501    0  0.15840156898E+03 -0.30964969349E+01 -0.60932904132E+03  0.65308429736E+03  0.17359888685E+03 0.  0.
       24    2    3    3    0    0  0.98503177873E+02  0.63734902453E+02 -0.39944877649E+03  0.42477295562E+03  0.84307324395E+02 0.  0.
       -6    2    1    2    0  503 -0.15840156898E+03  0.30964969349E+01  0.11042270566E+03  0.25795824880E+03  0.17102233436E+03 0.  0.
      -24    2    5    5    0    0 -0.12004949762E+03 -0.55667224041E+02  0.10647234228E+03  0.18751854656E+03  0.79474045590E+02 0.  0.
        5    1    3    3  501    0  0.59898391108E+02 -0.66831399388E+02 -0.20988026483E+03  0.22831134174E+03  0.47000000000E+01 0. -1.
        2    1    4    4  502    0  0.58854293540E+02  0.71345058513E-01 -0.99623838761E+02  0.11570973255E+03  0.00000000000E+00 0. -1.
       -1    1    4    4    0  502  0.39648884333E+02  0.63663557394E+02 -0.29982493773E+03  0.30906322307E+03  0.00000000000E+00 0.  1.
       -5    1    5    5    0  503 -0.38352071357E+02  0.58763720975E+02  0.39503633742E+01  0.70439702236E+02  0.47000000000E+01 0.  1.
       13    1    6    6    0    0  0.71336458155E+01 -0.20605301164E+02  0.21325057730E+02  0.30499597143E+02  0.00000000000E+00 0. -1.
      -14    1    6    6    0    0 -0.12718314344E+03 -0.35061922876E+02  0.85147284551E+02  0.15701894942E+03  0.00000000000E+00 0.  1.
</event>
<event>
12   0  0.1544783E-01  0.2159279E+03  0.7957747E-01  0.1143624E+00
       21   -1    0    0  504  503  0.00000000000E+00  0.00000000000E+00  0.17021235850E+03  0.17021235850E+03  0.00000000000E+00 0.  1.
       21   -1    0    0  501  504  0.00000000000E+00  0.00000000000E+00 -0.29801710352E+03  0.29801710352E+03  0.00000000000E+00 0.  1.
        6    2    1    2  501    0  0.12638136249E+02 -0.12851787969E+03 -0.13201776590E+03  0.25308798750E+03  0.17305568761E+03 0.  0.
       24    2    3    3    0    0  0.37731951204E+02 -0.36357617653E+02 -0.12776231923E+03  0.15736227374E+03  0.75459250464E+02 0.  0.
       -6    2    1    2    0  503 -0.12638136249E+02  0.12851787969E+03  0.42130208777E+01  0.21514147453E+03  0.17202190741E+03 0.  0.
      -24    2    5    5    0    0  0.49830051668E+02  0.10932935778E+03  0.24372982701E+02  0.14659231016E+03  0.80369898534E+02 0.  0.
        5    1    3    3  501    0 -0.25093814955E+02 -0.92160262032E+02 -0.42554466706E+01  0.95725713751E+02  0.47000000000E+01 0. -1.
        2    1    4    4  502    0  0.29880295438E+02  0.19170173715E+02 -0.43565116403E+02  0.56198282740E+02  0.00000000000E+00 0. -1.
       -1    1    4    4    0  502  0.78516557661E+01 -0.55527791368E+02 -0.84197202825E+02  0.10116399101E+03  0.00000000000E+00 0.  1.
       -5    1    5    5    0  503 -0.62468187917E+02  0.19188521905E+02 -0.20159961823E+02  0.68549164366E+02  0.47000000000E+01 0.  1.
       13    1    6    6    0    0  0.61219297745E+02  0.48151036232E+02  0.31378398743E+02  0.83969807754E+02  0.00000000000E+00 0. -1.
      -14    1    6    6    0    0 -0.11389246077E+02  0.61178321548E+02 -0.70054160420E+01  0.62622502406E+02  0.00000000000E+00 0.  1.
</event>
<event>
12   0  0.1544783E-01  0.2442526E+03  0.7957747E-01  0.1124286E+00
       21   -1    0    0  504  503  0.00000000000E+00  0.00000000000E+00  0.82239436918E+03  0.82239436918E+03  0.00000000000E+00 0. -1.
       21   -1    0    0  501  504  0.00000000000E+00  0.00000000000E+00 -0.10971795597E+03  0.10971795597E+03  0.00000000000E+00 0. -1.
        6    2    1    2  501    0 -0.11621643756E+03  0.12716857615E+03  0.85013376081E+02  0.25862444462E+03  0.17315086522E+03 0.  0.
       24    2    3    3    0    0 -0.22205529147E+01  0.44732151234E+02 -0.97201702277E+00  0.93680806686E+02  0.82275467273E+02 0.  0.
       -6    2    1    2    0  503  0.11621643756E+03 -0.12716857615E+03  0.62766303713E+03  0.67348788052E+03  0.17305181281E+03 0.  0.
      -24    2    5    5    0    0  0.10810070368E+03 -0.19221059509E+02  0.35972461212E+03  0.38446950554E+03  0.79748309429E+02 0.  0.
        5    1    3    3  501    0 -0.11399588464E+03  0.82436424918E+02  0.85985393104E+02  0.16494363794E+03  0.47000000000E+01 0. -1.
      -11    1    4    4    0    0  0.10836880735E+02  0.66683812726E+02 -0.53362873527E+01  0.67769055080E+02  0.00000000000E+00 0.  1.
       12    1    4    4    0    0 -0.13057433649E+02 -0.21951661492E+02  0.43642703299E+01  0.25911751606E+02  0.00000000000E+00 0. -1.
       -5    1    5    5    0  503  0.81157338785E+01 -0.10794751664E+03  0.26793842500E+03  0.28901837498E+03  0.47000000000E+01 0.  1.
        3    1    6    6  502    0  0.19452757885E+02  0.15293887198E+02  0.17448179011E+03  0.17622771591E+03  0.00000000000E+00 0. -1.
       -4    1    6    6    0  502  0.88647945795E+02 -0.34514946706E+02  0.18524282201E+03  0.20824178962E+03  0.00000000000E+00 0.  1.
</event>
<event>
12   0  0.1544783E-01  0.2196027E+03  0.7957747E-01  0.1140937E+00
       21   -1    0    0  504  503  0.00000000000E+00  0.00000000000E+00  0.79917527305E+03  0.79917527305E+03  0.00000000000E+00 0. -1.
       21   -1    0    0  501  504  0.00000000000E+00  0.00000000000E+00 -0.12154194510E+03  0.12154194510E+03  0.00000000000E+00 0.  1.
        6    2    1    2  501    0 -0.23689649659E+00  0.13524813460E+03  0.66602464900E+03  0.70129466040E+03  0.17301229322E+03 0.  0.
       24    2    3    3    0    0  0.20458753705E+02  0.31778100973E+02  0.11508208906E+03  0.14031858948E+03  0.70830862111E+02 0.  0.
       -6    2    1    2    0  503  0.23689649659E+00 -0.13524813460E+03  0.11608678960E+02  0.21942255775E+03  0.17239310714E+03 0.  0.
      -24    2    5    5    0    0 -0.43407258930E+02 -0.49362493430E+02 -0.38062250639E+02  0.11093086724E+03  0.80846004830E+02 0.  0.
        5    1    3    3  501    0 -0.20695650201E+02  0.10347003363E+03  0.55094255994E+03  0.56097607092E+03  0.47000000000E+01 0. -1.
        2    1    4    4  502    0 -0.12337327867E+01  0.33959914187E+02  0.13735146991E+02  0.36653132623E+02  0.00000000000E+00 0. -1.
       -1    1    4    4    0  502  0.21692486491E+02 -0.21818132150E+01  0.10134694207E+03  0.10366545686E+03  0.00000000000E+00 0.  1.
       -5    1    5    5    0  503  0.43644155427E+02 -0.85885641174E+02  0.49670929598E+02  0.10849169051E+03  0.47000000000E+01 0.  1.
       13    1    6    6    0    0 -0.15722613898E+02 -0.37339688321E+02  0.20232526954E+02  0.45285848326E+02  0.00000000000E+00 0. -1.
      -14    1    6    6    0    0 -0.27684645032E+02 -0.12022805109E+02 -0.58294777593E+02  0.65645018911E+02  0.00000000000E+00 0.  1.
</event>
<event>
12   0  0.1544783E-01  0.2185074E+03  0.7957747E-01  0.1141732E+00
       21   -1    0    0  504  503  0.00000000000E+00  0.00000000000E+00  0.22854538825E+03  0.22854538825E+03  0.00000000000E+00 0.  1.
       21   -1    0    0  501  504  0.00000000000E+00  0.00000000000E+00 -0.35971815869E+03  0.35971815869E+03  0.00000000000E+00 0.  1.
        6    2    1    2  501    0 -0.10986948500E+03  0.77178505254E+02 -0.25650874259E+03  0.33696028751E+03  0.17238815193E+03 0.  0.
       24    2    3    3    0    0 -0.12748462250E+03  0.50234888533E+02 -0.25938445673E+03  0.30430127217E+03  0.80889398909E+02 0.  0.
       -6    2    1    2    0  503  0.10986948500E+03 -0.77178505254E+02  0.12533597215E+03  0.25130325942E+03  0.17151208959E+03 0.  0.
      -24    2    5    5    0    0  0.60702614384E+02  0.12956035324E+02  0.15232004775E+02  0.10068257624E+03  0.77796535555E+02 0.  0.
        5    1    3    3  501    0  0.17615137497E+02  0.26943616721E+02  0.28757141367E+01  0.32659015338E+02  0.47000000000E+01 0. -1.
        2    1    4    4  502    0 -0.59307472642E+02  0.66422442467E+02 -0.14532582377E+03  0.17043741440E+03  0.00000000000E+00 0. -1.
       -1    1    4    4    0  502 -0.68177149856E+02 -0.16187553935E+02 -0.11405863296E+03  0.13386385777E+03  0.00000000000E+00 0.  1.
       -5    1    5    5    0  503  0.49166870617E+02 -0.90134540578E+02  0.11010396738E+03  0.15062068319E+03  0.47000000000E+01 0.  1.
       13    1    6    6    0    0  0.63666299217E+02 -0.17746130701E+02 -0.41794641569E+00  0.66094610144E+02  0.00000000000E+00 0. -1.
      -14    1    6    6    0    0 -0.29636848328E+01  0.30702166025E+02  0.15649951190E+02  0.34587966096E+02  0.00000000000E+00 0.  1.
</event>
<event>
12   0  0.1544783E-01  0.2893491E+03  0.7957747E-01  0.1098748E+00
       21   -1    0    0  504  503  0.00000000000E+00  0.00000000000E+00  0.76803125718E+03  0.76803125718E+03  0.00000000000E+00 0.  1.
       21   -1    0    0  501  504  0.00000000000E+00  0.00000000000E+00 -0.16940637361E+03  0.16940637361E+03  0.00000000000E+00 0.  1.
        6    2    1    2  501    0 -0.69102287545E+02 -0.21848512073E+03  0.16804173197E+02  0.28983668022E+03  0.17666931492E+03 0.  0.
       24    2    3    3    0    0 -0.47848179283E+02 -0.75928141165E+02  0.66192411725E+02  0.13740467030E+03  0.80275009619E+02 0.  0.
       -6    2    1    2    0  503  0.69102287545E+02  0.21848512073E+03  0.58182071037E+03  0.64760095057E+03  0.16840658548E+03 0.  0.
      -24    2    5    5    0    0  0.72087271539E+02  0.17978021827E+03  0.56902662132E+03  0.60645780632E+03  0.80512567167E+02 0.  0.
        5    1    3    3  501    0 -0.21254108262E+02 -0.14255697957E+03 -0.49388238528E+02  0.15243200991E+03  0.47000000000E+01 0. -1.
      -11    1    4    4    0    0 -0.59877583751E+02 -0.80805399090E+02  0.40119666878E+02  0.10827938506E+03  0.00000000000E+00 0.  1.
       12    1    4    4    0    0  0.12029404468E+02  0.48772579245E+01  0.26072744847E+02  0.29125285245E+02  0.00000000000E+00 0. -1.
       -5    1    5    5    0  503 -0.29849839939E+01  0.38704902461E+02  0.12794089048E+02  0.41143144247E+02  0.47000000000E+01 0.  1.
        1    1    6    6  502    0  0.33070511908E+02  0.48450916938E+02  0.28677443613E+03  0.29271270442E+03  0.00000000000E+00 0. -1.
       -2    1    6    6    0  502  0.39016759631E+02  0.13132930133E+03  0.28225218519E+03  0.31374510190E+03  0.00000000000E+00 0.  1.
</event>
<event>
12   0  0.1544783E-01  0.2063666E+03  0.7957747E-01  0.1150897E+00
       21   -1    0    0  501  503  0.00000000000E+00  0.00000000000E+00  0.29730566400E+03  0.29730566400E+03  0.00000000000E+00 0.  1.
       21   -1    0    0  503  504  0.00000000000E+00  0.00000000000E+00 -0.16748022047E+03  0.16748022047E+03  0.00000000000E+00 0. -1.
        6    2    1    2  501    0 -0.82212571635E+02 -0.72446117884E+02 -0.25575097325E+02  0.20645181750E+03  0.17309223094E+03 0.  0.
       24    2    3    3    0    0 -0.61982696168E+02  0.50230579493E+01  0.32499236399E+02  0.10742939931E+03  0.81349798614E+02 0.  0.
       -6    2    1    2    0  504  0.82212571635E+02  0.72446117884E+02  0.15540054086E+03  0.25833406698E+03  0.17487085272E+03 0.  0.
      -24    2    5    5    0    0  0.49671262846E+02  0.51227553310E+02  0.11483329639E+02  0.10919179280E+03  0.81850376818E+02 0.  0.
        5    1    3    3  501    0 -0.20229875467E+02 -0.77469175833E+02 -0.58074333724E+02  0.99022418185E+02  0.47000000000E+01 0. -1.
      -13    1    4    4    0    0 -0.76772036000E+02 -0.14187417411E+02  0.22981159117E+02  0.81384040197E+02  0.00000000000E+00 0.  1.
       14    1    4    4    0    0  0.14789339832E+02  0.19210475361E+02  0.95180772823E+01  0.26045359115E+02  0.00000000000E+00 0. -1.
       -5    1    5    5    0  504  0.32541308789E+02  0.21218564574E+02  0.14391721122E+03  0.14914227417E+03  0.47000000000E+01 0.  1.
        1    1    6    6  502    0  0.14545958009E+02 -0.19271046170E+02 -0.12053235064E+02  0.26985896138E+02  0.00000000000E+00 0. -1.
       -2    1    6    6    0  502  0.35125304837E+02  0.70498599480E+02  0.23536564703E+02  0.82205896666E+02  0.00000000000E+00 0.  1.
</event>
<event>
12   0  0.1544783E-01  0.2549843E+03  0.7957747E-01  0.1117693E+00
       21   -1    0    0  504  503  0.00000000000E+00  0.00000000000E+00  0.10876130132E+03  0.10876130132E+03  0.00000000000E+00 0. -1.
       21   -1    0    0  501  504  0.00000000000E+00  0.00000000000E+00 -0.60020341451E+03  0.60020341451E+03  0.00000000000E+00 0.  1.
        6    2    1    2  501    0  0.14693977661E+02 -0.18481427864E+03 -0.28108980051E+03  0.37951082309E+03  0.17505644325E+03 0.  0.
       24    2    3    3    0    0 -0.52019694466E+02 -0.14822462476E+03 -0.20503121791E+03  0.27182370777E+03  0.84697932612E+02 0.  0.
       -6    2    1    2    0  503 -0.14693977661E+02  0.18481427864E+03 -0.21035231268E+03  0.32945389274E+03  0.17297266092E+03 0.  0.
      -24    2    5    5    0    0  0.58727950101E+02  0.99652983111E+02 -0.12023593349E+03  0.18527942368E+03  0.80573543853E+02 0.  0.
        5    1    3    3  501    0  0.66713672127E+02 -0.36589653879E+02 -0.76058582596E+02  0.10768711532E+03  0.47000000000E+01 0. -1.
        4    1    4    4  502    0 -0.33312601111E+02 -0.15444335146E+02 -0.81985363644E+02  0.89832381316E+02  0.00000000000E+00 0. -1.
       -3    1    4    4    0  502 -0.18707093355E+02 -0.13278028961E+03 -0.12304585427E+03  0.18199132645E+03  0.00000000000E+00 0.  1.
       -5    1    5    5    0  503 -0.73421927762E+02  0.85161295526E+02 -0.90116379191E+02  0.14417446907E+03  0.47000000000E+01 0.  1.
       11    1    6    6    0    0  0.10640229829E+02  0.82710123063E+02 -0.10053693027E+03  0.13062102930E+03  0.00000000000E+00 0. -1.
      -12    1    6    6    0    0  0.48087720272E+02  0.16942860048E+02 -0.19699003222E+02  0.54658394374E+02  0.00000000000E+00 0.  1.
</event>
<event>
12   0  0.1544783E-01  0.2649929E+03  0.7957747E-01  0.1111855E+00
        1   -1    0    0  502    0  0.00000000000E+00  0.00000000000E+00  0.81273522470E+03  0.81273522470E+03  0.00000000000E+00 0.  1.
       -1   -1    0    0    0  501  0.00000000000E+00  0.00000000000E+00 -0.92762847728E+02  0.92762847728E+02  0.00000000000E+00 0. -1.
        6    2    1    2  502    0 -0.56864592372E+02  0.19243419485E+03  0.47853052874E+03  0.54699532616E+03  0.17305466969E+03 0.  0.
       24    2    3    3    0    0  0.11664187173E+02  0.28344243390E+02  0.17458530723E+03  0.19482137274E+03  0.80844841389E+02 0.  0.
       -6    2    1    2    0  501  0.56864592372E+02 -0.19243419485E+03  0.24144184823E+03  0.35850274626E+03  0.17310560877E+03 0.  0.
      -24    2    5    5    0    0  0.20850435795E+02 -0.14280857328E+03  0.80990167821E+02  0.18666982294E+03  0.86355001235E+02 0.  0.
        5    1    3    3  502    0 -0.68528779545E+02  0.16408995146E+03  0.30394522150E+03  0.35217395342E+03  0.47000000000E+01 0. -1.
      -13    1    4    4    0    0  0.26788422879E+02  0.23741636494E+02  0.23295686377E+02  0.42708007534E+02  0.00000000000E+00 0.  1.
       14    1    4    4    0    0 -0.15124235706E+02  0.46026068962E+01  0.15128962085E+03  0.15211336520E+03  0.00000000000E+00 0. -1.
       -5    1    5    5    0  501  0.36014156577E+02 -0.49625621570E+02  0.16045168041E+03  0.17183292332E+03  0.47000000000E+01 0.  1.
        3    1    6    6  503    0  0.43628278717E+02 -0.30602136392E+02  0.31779350412E+02  0.62047115712E+02  0.00000000000E+00 0. -1.
       -4    1    6    6    0  503 -0.22777842922E+02 -0.11220643688E+03  0.49210817409E+02  0.12462270723E+03  0.00000000000E+00 0.  1.
</event>
<event>
12   0  0.1544783E-01  0.1740557E+03  0.7957747E-01  0.1179092E+00
       -1   -1    0    0    0  501  0.00000000000E+00  0.00000000000E+00  0.19559379007E+03  0.19559379007E+03  0.00000000000E+00 0.  1.
        1   -1    0    0  502    0  0.00000000000E+00  0.00000000000E+00 -0.33776568897E+03  0.33776568897E+03  0.00000000000E+00 0. -1.
        6    2    1    2  502    0 -0.21390395006E+02  0.30060979850E+02  0.12444033861E+03  0.21682826116E+03  0.17368904817E+03 0.  0.
       24    2    3    3    0    0 -0.49671974015E+02 -0.17209805901E+02  0.20184742796E+02  0.98821082752E+02  0.81207759068E+02 0.  0.
       -6    2    1    2    0  501  0.21390395006E+02 -0.30060979850E+02 -0.26661223751E+03  0.31653121789E+03  0.16657945611E+03 0.  0.
      -24    2    5    5    0    0  0.36403242996E+02 -0.74225928533E+02 -0.22269015573E+03  0.25228818274E+03  0.84992570991E+02 0.  0.
        5    1    3    3  502    0  0.28281579009E+02  0.47270785751E+02  0.10425559581E+03  0.11800717841E+03  0.47000000000E+01 0. -1.
        4    1    4    4  503    0  0.67547442964E+01 -0.19301307602E+02 -0.20708203676E+02  0.29103208502E+02  0.00000000000E+00 0. -1.
       -3    1    4    4    0  503 -0.56426718311E+02  0.20915017011E+01  0.40892946472E+02  0.69717874249E+02  0.00000000000E+00 0.  1.
       -5    1    5    5    0  501 -0.15012847990E+02  0.44164948683E+02 -0.43922081784E+02  0.64243035149E+02  0.47000000000E+01 0.  1.
       13    1    6    6    0    0 -0.20227697642E+02  0.13405006817E+00 -0.73532912998E+02  0.76264454468E+02  0.00000000000E+00 0. -1.
      -14    1    6    6    0    0  0.56630940638E+02 -0.74359978601E+02 -0.14915724273E+03  0.17602372827E+03  0.00000000000E+00 0.  1.
</event>
<event>
12   0  0.1544783E-01  0.2069137E+03  0.7957747E-01  0.1150470E+00
       -2   -1    0    0    0  501  0.00000000000E+00  0.00000000000E+00  0.32666690891E+03  0.32666690891E+03  0.00000000000E+00 0. -1.
        2   -1    0    0  502    0  0.00000000000E+00  0.00000000000E+00 -0.13141396366E+03  0.13141396366E+03  0.00000000000E+00 0.  1.
        6    2    1    2  502    0  0.52668122811E+02  0.99582817141E+02  0.10947791451E+03  0.23405680814E+03  0.17351226770E+03 0.  0.
       24    2    3    3    0    0  0.86571978252E+02  0.17214317901E+02  0.61540425205E+02  0.13279411036E+03  0.77820380704E+02 0.  0.
       -6    2    1    2    0  501 -0.52668122811E+02 -0.99582817141E+02  0.85775030743E+02  0.22402406444E+03  0.17360517538E+03 0.  0.
      -24    2    5    5    0    0 -0.77010044492E+02 -0.10288899281E+03  0.18998131451E+02  0.15271695239E+03  0.80279802914E+02 0.  0.
        5    1    3    3  502    0 -0.33903855441E+02  0.82368499240E+02  0.47937489301E+02  0.10126269778E+03  0.47000000000E+01 0. -1.
      -13    1    4    4    0    0  0.65598576450E+02  0.39891926418E+02  0.66422958645E+02  0.10152117248E+03  0.00000000000E+00 0.  1.
       14    1    4    4    0    0  0.20973401802E+02 -0.22677608517E+02 -0.48825334397E+01  0.31272937886E+02  0.00000000000E+00 0. -1.
       -5    1    5    5    0  501  0.24341921681E+02  0.33061756686E+01  0.66776899292E+02  0.71307112042E+02  0.47000000000E+01 0.  1.
        3    1    6    6  503    0 -0.78212192082E+01 -0.31607056619E+02  0.39596888425E+02  0.51264910718E+02  0.00000000000E+00 0. -1.
       -4    1    6    6    0  503 -0.69188825284E+02 -0.71281936191E+02 -0.20598756974E+02  0.10145204168E+03  0.00000000000E+00 0.  1.
</event>
<event>
12   0  0.1544783E-01  0.2162207E+03  0.7957747E-01  0.1143407E+00
       21   -1    0    0  504  503  0.00000000000E+00  0.00000000000E+00  0.70136150062E+02  0.70136150062E+02  0.00000000000E+00 0.  1.
       21   -1    0    0  501  504  0.00000000000E+00  0.00000000000E+00 -0.65874423954E+03  0.65874423954E+03  0.00000000000E+00 0.  1.
        6    2    1    2  501    0 -0.93442651188E+01 -0.12880662110E+03 -0.28645656243E+03  0.35889938598E+03  0.17341553035E+03 0.  0.
       24    2    3    3    0    0  0.51728030398E+02 -0.11977202981E+03 -0.20239401249E+03  0.25449607462E+03  0.82363750843E+02 0.  0.
       -6    2    1    2    0  503  0.93442651188E+01  0.12880662110E+03 -0.30215152704E+03  0.36998100362E+03  0.17003510466E+03 0.  0.
      -24    2    5    5    0    0 -0.48304096560E+02  0.28720540980E+02 -0.90319851142E+02  0.12866107914E+03  0.72372940767E+02 0.  0.
        5    1    3    3  501    0 -0.61072295517E+02 -0.90345912829E+01 -0.84062549947E+02  0.10440331136E+03  0.47000000000E+01 0. -1.
        2    1    4    4  502    0  0.53243898489E+02 -0.27363941996E+02 -0.10010238067E+03  0.11663697811E+03  0.00000000000E+00 0. -1.
       -1    1    4    4    0  502 -0.15158680913E+01 -0.92408087817E+02 -0.10229163182E+03  0.13785909651E+03  0.00000000000E+00 0.  1.
       -5    1    5    5    0  503  0.57648361679E+02  0.10008608012E+03 -0.21183167590E+03  0.24131992448E+03  0.47000000000E+01 0.  1.
       13    1    6    6    0    0  0.15411490034E+02  0.65647059464E+01 -0.43316204372E+02  0.46442469254E+02  0.00000000000E+00 0. -1.
      -14    1    6    6    0    0 -0.63715586595E+02  0.22155835033E+02 -0.47003646770E+02  0.82218609881E+02  0.00000000000E+00 0.  1.
</event>
<event>
12   0  0.1544783E-01  0.1927019E+03  0.7957747E-01  0.1162078E+00
        2   -1    0    0  502    0  0.00000000000E+00  0.00000000000E+00  0.46923636734E+03  0.46923636734E+03  0.00000000000E+00 0. -1.
       -2   -1    0    0    0  501  0.00000000000E+00  0.00000000000E+00 -0.81964872188E+02  0.81964872188E+02  0.00000000000E+00 0.  1.
        6    2    1    2  502    0  0.48302382652E+02 -0.70856855312E+02  0.14245113962E+03  0.23964270258E+03  0.17257602269E+03 0.  0.
       24    2    3    3    0    0  0.93377420723E+02 -0.79504880397E+02  0.10041419622E+03  0.17722682315E+03  0.79284092559E+02 0.  0.
       -6    2    1    2    0  501 -0.48302382652E+02  0.70856855312E+02  0.24482035554E+03  0.31155853695E+03  0.17256274612E+03 0.  0.
      -24    2    5    5    0    0 -0.72184486611E+02 -0.19693120245E+01  0.18749040367E+03  0.21573151091E+03  0.78568155345E+02 0.  0.
        5    1    3    3  502    0 -0.45075038071E+02  0.86480250856E+01  0.42036943397E+02  0.62415879431E+02  0.47000000000E+01 0. -1.
        2    1    4    4  503    0  0.88906266132E+02 -0.47178043529E+02  0.10359586933E+03  0.14443751622E+03  0.00000000000E+00 0. -1.
       -1    1    4    4    0  503  0.44711545910E+01 -0.32326836869E+02 -0.31816731092E+01  0.32789306932E+02  0.00000000000E+00 0.  1.
       -5    1    5    5    0  501  0.23882103959E+02  0.72826167336E+02  0.57329951865E+02  0.95827026038E+02  0.47000000000E+01 0.  1.
       11    1    6    6    0    0 -0.57293398254E+02  0.34802959147E+02  0.11696348220E+03  0.13481185266E+03  0.00000000000E+00 0. -1.
      -12    1    6    6    0    0 -0.14891088357E+02 -0.36772271172E+02  0.70526921469E+02  0.80919658251E+02  0.00000000000E+00 0.  1.
</event>
<event>
12   0  0.1544783E-01  0.2288704E+03  0.7957747E-01  0.1134409E+00
       21   -1    0    0  501  503  0.00000000000E+00  0.00000000000E+00  0.94670632698E+03  0.94670632698E+03  0.00000000000E+00 0.  1.
       21   -1    0    0  503  504  0.00000000000E+00  0.00000000000E+00 -0.93109070756E+02  0.93109070756E+02  0.00000000000E+00 0.  1.
        6    2    1    2  501    0 -0.44797069843E+02  0.13905730064E+03  0.75924909869E+03  0.79226086712E+03  0.17284205909E+03 0.  0.
       24    2    3    3    0    0 -0.65647037021E+02  0.16062554259E+03  0.58818259527E+03  0.61852040327E+03  0.80614052559E+02 0.  0.
       -6    2    1    2    0  504  0.44797069843E+02 -0.13905730064E+03  0.94348157534E+02  0.24755453061E+03  0.17617593612E+03 0.  0.
      -24    2    5    5    0    0  0.98193104246E+02 -0.96557430123E+02  0.81402227652E+02  0.17793368183E+03  0.77902820430E+02 0.  0.
        5    1    3    3  501    0  0.20849967177E+02 -0.21568241951E+02  0.17106650341E+03  0.17374046386E+03  0.47000000000E+01 0. -1.
      -11    1    4    4    0    0 -0.17004813121E+02  0.66588044428E+02  0.36607018674E+03  0.37246545203E+03  0.00000000000E+00 0.  1.
       12    1    4    4    0    0 -0.48642223900E+02  0.94037498159E+02  0.22211240853E+03  0.24605495124E+03  0.00000000000E+00 0. -1.
       -5    1    5    5    0  504 -0.53396034403E+02 -0.42499870514E+02  0.12945929882E+02  0.69620848775E+02  0.47000000000E+01 0.  1.
        3    1    6    6  502    0  0.22505771378E+02 -0.13478581324E+02  0.57260545406E+02  0.62983743617E+02  0.00000000000E+00 0. -1.
       -4    1    6    6    0  502  0.75687332868E+02 -0.83078848799E+02  0.24141682246E+02  0.11494993822E+03  0.00000000000E+00 0.  1.
</event>
<event>
12   0  0.1544783E-01  0.1887315E+03  0.7957747E-01  0.1165518E+00
       21   -1    0    0  501  503  0.00000000000E+00  0.00000000000E+00  0.48359495007E+03  0.48359495007E+03  0.00000000000E+00 0.  1.
       21   -1    0    0  503  504  0.00000000000E+00  0.00000000000E+00 -0.19382608796E+03  0.19382608796E+03  0.00000000000E+00 0.  1.
        6    2    1    2  501    0 -0.56861570042E+02 -0.50502492585E+02  0.41186467297E+03  0.45304754211E+03  0.17273050299E+03 0.  0.
       24    2    3    3    0    0 -0.10328192958E+03 -0.48380032224E+02  0.27043259799E+03  0.30410300058E+03  0.79605655624E+02 0.  0.
       -6    2    1    2    0  504  0.56861570042E+02  0.50502492585E+02 -0.12209581086E+03  0.22437349593E+03  0.17219854454E+03 0.  0.
      -24    2    5    5    0    0  0.31280895560E+02  0.98770861325E+02 -0.96864214794E+02  0.16401680808E+03  0.82369046077E+02 0.  0.
        5    1    3    3  501    0  0.46420359542E+02 -0.21224603612E+01  0.14143207498E+03  0.14894454153E+03  0.47000000000E+01 0. -1.
      -11    1    4    4    0    0 -0.33489582253E+02  0.18649036447E+02  0.11283456958E+03  0.11916785965E+03  0.00000000000E+00 0.  1.
       12    1    4    4    0    0 -0.69792347331E+02 -0.67029068671E+02  0.15759802841E+03  0.18493514093E+03  0.00000000000E+00 0. -1.
       -5    1    5    5    0  504  0.25580674482E+02 -0.48268368740E+02 -0.25231596066E+02  0.60356687846E+02  0.47000000000E+01 0.  1.
        1    1    6    6  502    0 -0.18662315466E+02  0.30451723152E+02 -0.63884127618E+02  0.73189966682E+02  0.00000000000E+00 0. -1.
       -2    1    6    6    0  502  0.49943211026E+02  0.68319138173E+02 -0.32980087176E+02  0.90826841399E+02  0.00000000000E+00 0.  1.
</event>
<event>
12   0  0.1544783E-01  0.1858999E+03  0.7957747E-01  0.1168029E+00
       21   -1    0    0  501  503  0.00000000000E+00  0.00000000000E+00  0.59761466376E+02  0.59761466376E+02  0.00000000000E+00 0.  1.
       21   -1    0    0  503  504  0.00000000000E+00  0.00000000000E+00 -0.73068800143E+03  0.73068800143E+03  0.00000000000E+00 0.  1.
        6    2    1    2  501    0  0.59396295434E+02 -0.76919616996E+01 -0.14391910329E+03  0.23161530774E+03  0.17130632301E+03 0.  0.
       24    2    3    3    0    0  0.50217276308E+02  0.10239492766E+02 -0.10906208832E+02  0.97003601187E+02  0.81634130118E+02 0.  0.
       -6    2    1    2    0  504 -0.59396295434E+02  0.76919616996E+01 -0.52700743176E+03  0.55883416006E+03  0.17598778119E+03 0.  0.
      -24    2    5    5    0    0 -0.42870060967E+01 -0.45967962695E+02 -0.39674240856E+03  0.40748196309E+03  0.80657172506E+02 0.  0.
        5    1    3    3  501    0  0.91790191253E+01 -0.17931454466E+02 -0.13301289445E+03  0.13461170656E+03  0.47000000000E+01 0. -1.
        2    1    4    4  502    0  0.20143758301E+02  0.27962956105E+02 -0.39108877861E+02  0.52126790043E+02  0.00000000000E+00 0. -1.
       -1    1    4    4    0  502  0.30073518008E+02 -0.17723463340E+02  0.28202669028E+02  0.44876811144E+02  0.00000000000E+00 0.  1.
       -5    1    5    5    0  504 -0.55109289337E+02  0.53659924395E+02 -0.13026502320E+03  0.15135219697E+03  0.47000000000E+01 0.  1.
       11    1    6    6    0    0  0.13904488254E+02  0.19861439934E+02 -0.88239449252E+02  0.91509627876E+02  0.00000000000E+00 0. -1.
      -12    1    6    6    0    0 -0.18191494350E+02 -0.65829402629E+02 -0.30850295931E+03  0.31597233521E+03  0.00000000000E+00 0.  1.
</event>
<event>
12   0  0.1544783E-01  0.2227288E+03  0.7957747E-01  0.1138696E+00
       21   -1    0    0  501  503  0.00000000000E+00  0.00000000000E+00  0.99842255294E+02  0.99842255294E+02  0.00000000000E+00 0. -1.
       21   -1    0    0  503  504  0.00000000000E+00  0.00000000000E+00 -0.55100922834E+03  0.55100922834E+03  0.00000000000E+00 0. -1.
        6    2    1    2  501    0  0.13534329815E+03  0.22030205437E+02 -0.11636020052E+03  0.24872752303E+03  0.17182126219E+03 0.  0.
       24    2    3    3    0    0  0.75837882909E+02 -0.90200508348E+01  0.43538648574E+01  0.11052843317E+03  0.79779900970E+02 0.  0.
       -6    2    1    2    0  504 -0.13534329815E+03 -0.22030205437E+02 -0.33480677253E+03  0.40212396061E+03  0.17551343669E+03 0.  0.
      -24    2    5    5    0    0 -0.14593608169E+03  0.52001805689E+01 -0.33279224705E+03  0.37246170685E+03  0.81563849563E+02 0.  0.
        5    1    3    3  501    0  0.59505415241E+02  0.31050256272E+02 -0.12071406537E+03  0.13819908985E+03  0.47000000000E+01 0. -1.
        2    1    4    4  502    0  0.28888439551E+02 -0.16727848450E+02  0.39249313017E+02  0.51525444450E+02  0.00000000000E+00 0. -1.
       -1    1    4    4    0  502  0.46949443358E+02  0.77077976151E+01 -0.34895448160E+02  0.59002988721E+02  0.00000000000E+00 0.  1.
       -5    1    5    5    0  504  0.10592783536E+02 -0.27230386006E+02 -0.20145254757E+01  0.29662253757E+02  0.47000000000E+01 0.  1.
       13    1    6    6    0    0 -0.10687049280E+03  0.33157730974E+02 -0.17674823156E+03  0.20919052253E+03  0.00000000000E+00 0. -1.
      -14    1    6    6    0    0 -0.39065588883E+02 -0.27957550405E+02 -0.15604401549E+03  0.16327118432E+03  0.00000000000E+00 0.  1.
</event>
<event>
12   0  0.1544783E-01  0.1865011E+03  0.7957747E-01  0.1167492E+00
        1   -1    0    0  502    0  0.00000000000E+00  0.00000000000E+00  0.76159277228E+02  0.76159277228E+02  0.00000000000E+00 0.  1.
       -1   -1    0    0    0  501  0.00000000000E+00  0.00000000000E+00 -0.45674524288E+03  0.45674524288E+03  0.00000000000E+00 0. -1.
        6    2    1    2  502    0  0.49215673611E+02  0.50073708475E+02 -0.19252523207E+03  0.26796330389E+03  0.17265227608E+03 0.  0.
       24    2    3    3    0    0  0.15561706294E+02 -0.35754277393E+02 -0.61791982684E+02  0.10792485485E+03  0.79429151546E+02 0.  0.
       -6    2    1    2    0  501 -0.49215673611E+02 -0.50073708475E+02 -0.18806073358E+03  0.26494121622E+03  0.17290879020E+03 0.  0.
      -24    2    5    5    0    0 -0.83215505204E+02  0.28442430492E+01 -0.80730669010E+02  0.14044972695E+03  0.79219788282E+02 0.  0.
        5    1    3    3  502    0  0.33653967317E+02  0.85827985868E+02 -0.13073324939E+03  0.16003844904E+03  0.47000000000E+01 0. -1.
      -13    1    4    4    0    0 -0.15978218281E+02 -0.19635967257E+01  0.12531037832E+02  0.20400639223E+02  0.00000000000E+00 0.  1.
       14    1    4    4    0    0  0.31539924576E+02 -0.33790680668E+02 -0.74323020517E+02  0.87524215626E+02  0.00000000000E+00 0. -1.
       -5    1    5    5    0  501  0.33999831593E+02 -0.52917951524E+02 -0.10733006457E+03  0.12449148928E+03  0.47000000000E+01 0.  1.
        3    1    6    6  503    0 -0.43294732185E+02  0.20974251555E+02  0.53513324251E+00  0.48110699754E+02  0.00000000000E+00 0. -1.
       -4    1    6    6    0  503 -0.39920773019E+02 -0.18130008506E+02 -0.81265802253E+02  0.92339027191E+02  0.00000000000E+00 0.  1.
</event>
<event>
12   0  0.1544783E-01  0.1772988E+03  0.7957747E-01  0.1175969E+00
       21   -1    0    0  504  503  0.00000000000E+00  0.00000000000E+00  0.46743886767E+02  0.46743886767E+02  0.00000000000E+00 0.  1.
       21   -1    0    0  501  504  0.00000000000E+00  0.00000000000E+00 -0.67924091012E+03  0.67924091012E+03  0.00000000000E+00 0.  1.
        6    2    1    2  501    0 -0.37194799275E+02  0.10684030742E+01 -0.35774531690E+03  0.39899339615E+03  0.17271196783E+03 0.  0.
       24    2    3    3    0    0 -0.14452649246E+02 -0.66997710031E+02 -0.27376603797E+03  0.28842753148E+03  0.59540113795E+02 0.  0.
       -6    2    1    2    0  503  0.37194799275E+02 -0.10684030742E+01 -0.27475170646E+03  0.32699140074E+03  0.17335016982E+03 0.  0.
      -24    2    5    5    0    0  0.59134489254E+01 -0.47154696034E+02 -0.70848596895E+02  0.11556520234E+03  0.77956770550E+02 0.  0.
        5    1    3    3  501    0 -0.22742150029E+02  0.68066113105E+02 -0.83979278931E+02  0.11056586467E+03  0.47000000000E+01 0. -1.
        4    1    4    4  502    0 -0.16275940757E+02 -0.44061935312E+02 -0.25334927367E+03  0.25766686799E+03  0.00000000000E+00 0. -1.
       -3    1    4    4    0  502  0.18232915105E+01 -0.22935774719E+02 -0.20416764300E+02  0.30760663490E+02  0.00000000000E+00 0.  1.
       -5    1    5    5    0  503  0.31281350350E+02  0.46086292960E+02 -0.20390310956E+03  0.21142619839E+03  0.47000000000E+01 0.  1.
       11    1    6    6    0    0  0.34083872341E+02 -0.51937718614E+02 -0.54527487306E+02  0.82658840062E+02  0.00000000000E+00 0. -1.
      -12    1    6    6    0    0 -0.28170423415E+02  0.47830225794E+01 -0.16321109589E+02  0.32906362282E+02  0.00000000000E+00 0.  1.
</event>
<event>
12   0  0.1544783E-01  0.1776009E+03  0.7957747E-01  0.1175682E+00
       21   -1    0    0  501  503  0.00000000000E+00  0.00000000000E+00  0.18057908914E+03  0.18057908914E+03  0.00000000000E+00 0. -1.
       21   -1    0    0  503  504  0.00000000000E+00  0.00000000000E+00 -0.66250641397E+03  0.66250641397E+03  0.00000000000E+00 0. -1.
        6    2    1    2  501    0 -0.35522023191E+02 -0.18783327381E+02  0.12138261286E+03  0.21417774085E+03  0.17182473178E+03 0.  0.
       24    2    3    3    0    0 -0.74856108447E+02  0.45988482706E+01  0.36226021586E+02  0.11739121576E+03  0.82727181272E+02 0.  0.
       -6    2    1    2    0  504  0.35522023191E+02  0.18783327381E+02 -0.60330993769E+03  0.62890776226E+03  0.17299556350E+03 0.  0.
      -24    2    5    5    0    0  0.46911798065E+02 -0.26568307841E+02 -0.54914078676E+03  0.55719385355E+03  0.77477706314E+02 0.  0.
        5    1    3    3  501    0  0.39334085256E+02 -0.23382175651E+02  0.85156591277E+02  0.96786525091E+02  0.47000000000E+01 0. -1.
        4    1    4    4  502    0 -0.37134929015E+02 -0.25726027856E+02  0.49688156123E+02  0.67154629931E+02  0.00000000000E+00 0. -1.
       -3    1    4    4    0  502 -0.37721179432E+02  0.30324876126E+02 -0.13462134537E+02  0.50236585833E+02  0.00000000000E+00 0.  1.
       -5    1    5    5    0  504 -0.11389774875E+02  0.45351635222E+02 -0.54169150939E+02  0.71713908710E+02  0.47000000000E+01 0.  1.
       11    1    6    6    0    0  0.40925142266E+02 -0.52753646768E+02 -0.35770621590E+03  0.36388398070E+03  0.00000000000E+00 0. -1.
      -12    1    6    6    0    0  0.59866557990E+01  0.26185338927E+02 -0.19143457085E+03  0.19330987285E+03  0.00000000000E+00 0.  1.
</event>
<event>
12   0  0.1544783E-01  0.1837985E+03  0.7957747E-01  0.1169925E+00
       -2   -1    0    0    0  501  0.00000000000E+00  0.00000000000E+00  0.30223535927E+02  0.30223535927E+02  0.00000000000E+00 0.  1.
        2   -1    0    0  502    0  0.00000000000E+00  0.00000000000E+00 -0.11266372791E+04  0.11266372791E+04  0.00000000000E+00 0. -1.
        6    2    1    2  502    0  0.98049623033E+01  0.59613920766E+02 -0.59803091606E+03  0.62548274704E+03  0.17302523933E+03 0.  0.
       24    2    3    3    0    0  0.63179855703E+02  0.11269150992E+02 -0.42419194893E+03  0.43725901713E+03  0.84486392926E+02 0.  0.
       -6    2    1    2    0  501 -0.98049623033E+01 -0.59613920766E+02 -0.49838282713E+03  0.53137806800E+03  0.17414721342E+03 0.  0.
      -24    2    5    5    0    0  0.34774494837E+02  0.22986140268E+01 -0.38389517533E+03  0.39371906038E+03  0.80153875473E+02 0.  0.
        5    1    3    3  502    0 -0.53374893400E+02  0.48344769774E+02 -0.17383896713E+03  0.18822372991E+03  0.47000000000E+01 0. -1.
        4    1    4    4  503    0  0.22532470699E+02 -0.25578562245E+02 -0.29413809961E+03  0.29610673198E+03  0.00000000000E+00 0. -1.
       -3    1    4    4    0  503  0.40647385004E+02  0.36847713237E+02 -0.13005384932E+03  0.14115228515E+03  0.00000000000E+00 0.  1.
       -5    1    5    5    0  501 -0.44579457140E+02 -0.61912534793E+02 -0.11448765180E+03  0.13765900762E+03  0.47000000000E+01 0.  1.
       11    1    6    6    0    0  0.27958759008E+02  0.10353320757E+02 -0.41170563361E+02  0.50832064127E+02  0.00000000000E+00 0. -1.
      -12    1    6    6    0    0  0.68157358292E+01 -0.80547067306E+01 -0.34272461197E+03  0.34288699626E+03  0.00000000000E+00 0.  1.
</event>
<event>
12   0  0.1544783E-01  0.1808222E+03  0.7957747E-01  0.1172658E+00
       21   -1    0    0  501  503  0.00000000000E+00  0.00000000000E+00  0.21360047526E+03  0.21360047526E+03  0.00000000000E+00 0. -1.
       21   -1    0    0  503  504  0.00000000000E+00  0.00000000000E+00 -0.15320518130E+03  0.15320518130E+03  0.00000000000E+00 0. -1.
        6    2    1    2  501    0  0.36491469251E+02 -0.27734751058E+02  0.40922197417E+02  0.18493791102E+03  0.17443210985E+03 0.  0.
       24    2    3    3    0    0  0.16497707349E+02  0.30135988841E+02  0.74814405163E+02  0.11479844426E+03  0.80007096025E+02 0.  0.
       -6    2    1    2    0  504 -0.36491469251E+02  0.27734751058E+02  0.19473096539E+02  0.18186774554E+03  0.17491664196E+03 0.  0.
      -24    2    5    5    0    0 -0.71081361021E+02  0.29324236324E+01  0.63326968504E+02  0.12057444946E+03  0.73937364905E+02 0.  0.
        5    1    3    3  501    0  0.19993761902E+02 -0.57870739899E+02 -0.33892207746E+02  0.70139466760E+02  0.47000000000E+01 0. -1.
        2    1    4    4  502    0  0.48149512552E+02  0.13329954469E+02  0.33731680264E+02  0.60281750958E+02  0.00000000000E+00 0. -1.
       -1    1    4    4    0  502 -0.31651805203E+02  0.16806034373E+02  0.41082724899E+02  0.54516693306E+02  0.00000000000E+00 0.  1.
       -5    1    5    5    0  504  0.34589891770E+02  0.24802327425E+02 -0.43853871964E+02  0.61293296082E+02  0.47000000000E+01 0.  1.
       13    1    6    6    0    0 -0.23654812833E+02  0.36958633506E+02  0.22246585885E+02  0.49197574578E+02  0.00000000000E+00 0. -1.
      -14    1    6    6    0    0 -0.47426548188E+02 -0.34026209874E+02  0.41080382619E+02  0.71376874879E+02  0.00000000000E+00 0.  1.
</event>
<event>
12   0  0.1544783E-01  0.2065141E+03  0.7957747E-01  0.1150782E+00
        1   -1    0    0  502    0  0.00000000000E+00  0.00000000000E+00  0.55052094400E+02  0.55052094400E+02  0.00000000000E+00 0.  1.
       -1   -1    0    0    0  501  0.00000000000E+00  0.00000000000E+00 -0.92859035840E+03  0.92859035840E+03  0.00000000000E+00 0. -1.
        6    2    1    2  502    0 -0.10133847377E+03 -0.52424464733E+02 -0.63825624792E+03  0.67105664588E+03  0.17299761039E+03 0.  0.
       24    2    3    3    0    0 -0.21832745939E+00 -0.65671221897E+02 -0.36022371714E+03  0.37487268490E+03  0.80347037568E+02 0.  0.
       -6    2    1    2    0  501  0.10133847377E+03  0.52424464733E+02 -0.23528201608E+03  0.31258580692E+03  0.17127302423E+03 0.  0.
      -24    2    5    5    0    0  0.94504110738E+02 -0.26301584575E+02 -0.14204124980E+03  0.19027297090E+03  0.80033033896E+02 0.  0.
        5    1    3    3  502    0 -0.10112014631E+03  0.13246757164E+02 -0.27803253078E+03  0.29618396097E+03  0.47000000000E+01 0. -1.
      -13    1    4    4    0    0  0.39216558411E+02 -0.38727788592E+02 -0.16827406696E+03  0.17707044269E+03  0.00000000000E+00 0.  1.
       14    1    4    4    0    0 -0.39434885870E+02 -0.26943433306E+02 -0.19194965017E+03  0.19780224221E+03  0.00000000000E+00 0. -1.
       -5    1    5    5    0  501  0.68343630364E+01  0.78726049309E+02 -0.93240766280E+02  0.12231283602E+03  0.47000000000E+01 0.  1.
        1    1    6    6  503    0  0.34433310880E+02 -0.18860982613E+02 -0.11933007247E+03  0.12562267215E+03  0.00000000000E+00 0. -1.
       -2    1    6    6    0  503  0.60070799858E+02 -0.74406019622E+01 -0.22711177332E+02  0.64650298753E+02  0.00000000000E+00 0.  1.
</event>
<event>
12   0  0.1544783E-01  0.1852919E+03  0.7957747E-01  0.1168575E+00
       21   -1    0    0  504  503  0.00000000000E+00  0.00000000000E+00  0.11754345861E+03  0.11754345861E+03  0.00000000000E+00 0. -1.
       21   -1    0    0  501  504  0.00000000000E+00  0.00000000000E+00 -0.28505169986E+03  0.28505169986E+03  0.00000000000E+00 0. -1.
        6    2    1    2  501    0  0.55833328121E+02 -0.52652780100E+00 -0.88683214216E+02  0.20123357525E+03  0.17179232103E+03 0.  0.
       24    2    3    3    0    0  0.85380759704E+02  0.14953262984E+02 -0.13499127859E+02  0.11884782723E+03  0.80181702294E+02 0.  0.
       -6    2    1    2    0  503 -0.55833328121E+02  0.52652780100E+00 -0.78825027041E+02  0.20136158322E+03  0.17667898728E+03 0.  0.
      -24    2    5    5    0    0  0.26684159954E+02 -0.37701482405E+02 -0.54973304948E+02  0.10722598289E+03  0.79636053276E+02 0.  0.
        5    1    3    3  501    0 -0.29547431583E+02 -0.15479790785E+02 -0.75184086357E+02  0.82385748023E+02  0.47000000000E+01 0. -1.
      -13    1    4    4    0    0  0.75135051910E+02 -0.19244367545E+02 -0.24756233917E+02  0.81415556409E+02  0.00000000000E+00 0.  1.
       14    1    4    4    0    0  0.10245707794E+02  0.34197630528E+02  0.11257106058E+02  0.37432270820E+02  0.00000000000E+00 0. -1.
       -5    1    5    5    0  503 -0.82517488075E+02  0.38228010206E+02 -0.23851722092E+02  0.94135600329E+02  0.47000000000E+01 0.  1.
        3    1    6    6  502    0  0.36628000179E+02  0.13165918449E+02 -0.32607513318E+02  0.50775995613E+02  0.00000000000E+00 0. -1.
       -4    1    6    6    0  502 -0.99438402253E+01 -0.50867400854E+02 -0.22365791631E+02  0.56449987275E+02  0.00000000000E+00 0.  1.
</event>
<event>
12   0  0.1544783E-01  0.1833272E+03  0.7957747E-01  0.1170354E+00
        2   -1    0    0  502    0  0.00000000000E+00  0.00000000000E+00  0.11217001112E+04  0.11217001112E+04  0.00000000000E+00 0. -1.
       -2   -1    0    0    0  501  0.00000000000E+00  0.00000000000E+00 -0.56310483987E+02  0.56310483987E+02  0.00000000000E+00 0.  1.
        6    2    1    2  502    0 -0.46009522981E+02 -0.40463124996E+02  0.93548876107E+03  0.95326942134E+03  0.17271139763E+03 0.  0.
       24    2    3    3    0    0 -0.58917697179E+02  0.28300181608E+02  0.40720496853E+03  0.42035210246E+03  0.81288426766E+02 0.  0.
       -6    2    1    2    0  501  0.46009522981E+02  0.40463124996E+02  0.12990086610E+03  0.22474117381E+03  0.17285895841E+03 0.  0.
      -24    2    5    5    0    0 -0.41718160476E+02  0.16790656175E+02  0.69228473064E+02  0.11538047931E+03  0.80608575691E+02 0.  0.
        5    1    3    3  502    0  0.12908174198E+02 -0.68763306605E+02  0.52828379254E+03  0.53291731888E+03  0.47000000000E+01 0. -1.
      -11    1    4    4    0    0 -0.73896672137E+02  0.31865876106E+02  0.25564900428E+03  0.26801598013E+03  0.00000000000E+00 0.  1.
       12    1    4    4    0    0  0.14978974958E+02 -0.35656944978E+01  0.15155596425E+03  0.15233612233E+03  0.00000000000E+00 0. -1.
       -5    1    5    5    0  501  0.87727683457E+02  0.23672468821E+02  0.60672393036E+02  0.10936069450E+03  0.47000000000E+01 0.  1.
        3    1    6    6  503    0 -0.31826649609E+02  0.42031065017E+02  0.70744334674E+02  0.88228719475E+02  0.00000000000E+00 0. -1.
       -4    1    6    6    0  503 -0.98915108674E+01 -0.25240408842E+02 -0.15158616100E+01  0.27151759835E+02  0.00000000000E+00 0.  1.
</event>
<event>
12   0  0.1544783E-01  0.1767653E+03  0.7957747E-01  0.1176478E+00
       21   -1    0    0  504  503  0.00000000000E+00  0.00000000000E+00  0.69115852778E+03  0.69115852778E+03  0.00000000000E+00 0.  1.
       21   -1    0    0  501  504  0.00000000000E+00  0.00000000000E+00 -0.45470320475E+02  0.45470320475E+02  0.00000000000E+00 0.  1.
        6    2    1    2  501    0 -0.34645125755E+02 -0.33920356170E+01  0.35483968046E+03  0.39627780193E+03  0.17295405989E+03 0.  0.
       24    2    3    3    0    0 -0.42733561616E+02 -0.32323678732E+02  0.98046888580E+02  0.13769108393E+03  0.80465301456E+02 0.  0.
       -6    2    1    2    0  503  0.34645125755E+02  0.33920356170E+01  0.29084852685E+03  0.34035104632E+03  0.17330371756E+03 0.  0.
      -24    2    5    5    0    0 -0.28496373750E+01  0.28541818516E+02  0.57833838704E+02  0.10295621965E+03  0.80202708353E+02 0.  0.
        5    1    3    3  501    0  0.80884358606E+01  0.28931643115E+02  0.25679279188E+03  0.25858671800E+03  0.47000000000E+01 0. -1.
        4    1    4    4  502    0  0.24932400599E+01 -0.45985497836E+02  0.66469953503E+02  0.80864930445E+02  0.00000000000E+00 0. -1.
       -3    1    4    4    0  502 -0.45226801676E+02  0.13661819104E+02  0.31576935078E+02  0.56826153486E+02  0.00000000000E+00 0.  1.
       -5    1    5    5    0  503  0.37494763130E+02 -0.25149782899E+02  0.23301468814E+03  0.23739482668E+03  0.47000000000E+01 0.  1.
       11    1    6    6    0    0 -0.22048435872E+00  0.30090487976E+02  0.77457242815E+02  0.83096994798E+02  0.00000000000E+00 0. -1.
      -12    1    6    6    0    0 -0.26291530163E+01 -0.15486694600E+01 -0.19623404110E+02  0.19859224848E+02  0.00000000000E+00 0.  1.
</event>
<event>
12   0  0.1544783E-01  0.1935060E+03  0.7957747E-01  0.1161392E+00
       21   -1    0    0  504  503  0.00000000000E+00  0.00000000000E+00  0.18655217100E+03  0.18655217100E+03  0.00000000000E+00 0.  1.
       21   -1    0    0  501  504  0.00000000000E+00  0.00000000000E+00 -0.23283877119E+03  0.23283877119E+03  0.00000000000E+00 0. -1.
        6    2    1    2  501    0 -0.18160640528E+02 -0.84819103928E+02 -0.10210357107E+03  0.21799557054E+03  0.17196755594E+03 0.  0.
       24    2    3    3    0    0 -0.60811485055E+02 -0.34225375999E+02 -0.39270459730E+02  0.12662320205E+03  0.98091045525E+02 0.  0.
       -6    2    1    2    0  503  0.18160640528E+02  0.84819103928E+02  0.55816970879E+02  0.20139537165E+03  0.17297535151E+03 0.  0.
      -24    2    5    5    0    0  0.49011859011E+02 -0.80608449970E+01  0.16510680572E+02  0.95822851308E+02  0.80263794541E+02 0.  0.
        5    1    3    3  501    0  0.42650844527E+02 -0.50593727929E+02 -0.62833111335E+02  0.91372368497E+02  0.47000000000E+01 0. -1.
        4    1    4    4  502    0 -0.37149620189E+02  0.22759514441E+02 -0.47408357972E+02  0.64386661533E+02  0.00000000000E+00 0. -1.
       -3    1    4    4    0  502 -0.23661864865E+02 -0.56984890439E+02  0.81378982415E+01  0.62236540514E+02  0.00000000000E+00 0.  1.
       -5    1    5    5    0  503 -0.30851218483E+02  0.92879948925E+02  0.39306290307E+02  0.10557252034E+03  0.47000000000E+01 0.  1.
       11    1    6    6    0    0  0.57397809981E+02  0.23048176058E+02  0.71089058088E+01  0.62259646256E+02  0.00000000000E+00 0. -1.
      -12    1    6    6    0    0 -0.83859509701E+01 -0.31109021055E+02  0.94017747629E+01  0.33563205052E+02  0.00000000000E+00 0.  1.
</event>
<event>
12   0  0.1544783E-01  0.1774418E+03  0.7957747E-01  0.1175833E+00
       -2   -1    0    0    0  501  0.00000000000E+00  0.00000000000E+00  0.87497160093E+02  0.87497160093E+02  0.00000000000E+00 0.  1.
        2   -1    0    0  502    0  0.00000000000E+00  0.00000000000E+00 -0.41129400106E+03  0.41129400106E+03  0.00000000000E+00 0. -1.
        6    2    1    2  502    0 -0.40087867562E+02  0.17447102329E+02 -0.25130963614E+03  0.30853681019E+03  0.17357128656E+03 0.  0.
       24    2    3    3    0    0 -0.61112898119E+02  0.59377639228E+02 -0.11593286640E+03  0.16518695278E+03  0.81153000550E+02 0.  0.
       -6    2    1    2    0  501  0.40087867562E+02 -0.17447102329E+02 -0.72487204827E+02  0.19025435097E+03  0.17038452011E+03 0.  0.
      -24    2    5    5    0    0  0.81151045588E+02  0.39600775306E+01 -0.21293316905E+02  0.12106362833E+03  0.87188430106E+02 0.  0.
        5    1    3    3  502    0  0.21025030557E+02 -0.41930536899E+02 -0.13537676974E+03  0.14334985741E+03  0.47000000000E+01 0. -1.
        2    1    4    4  503    0 -0.60650264383E+02  0.29435724768E+01 -0.67764897513E+02  0.90990112230E+02  0.00000000000E+00 0. -1.
       -1    1    4    4    0  503 -0.46263373585E+00  0.56434066752E+02 -0.48167968888E+02  0.74196840545E+02  0.00000000000E+00 0.  1.
       -5    1    5    5    0  501 -0.41063178027E+02 -0.21407179860E+02 -0.51193887922E+02  0.69190722643E+02  0.47000000000E+01 0.  1.
       11    1    6    6    0    0  0.12082110953E+02  0.11055534354E+02 -0.44847977564E+02  0.47744563424E+02  0.00000000000E+00 0. -1.
      -12    1    6    6    0    0  0.69068934635E+02 -0.70954568235E+01  0.23554660659E+02  0.73319064901E+02  0.00000000000E+00 0.  1.
</event>
<event>
12   0  0.1544783E-01  0.2175663E+03  0.7957747E-01  0.1142419E+00
        2   -1    0    0  502    0  0.00000000000E+00  0.00000000000E+00  0.19706701328E+03  0.19706701328E+03  0.00000000000E+00 0. -1.
       -2   -1    0    0    0  501  0.00000000000E+00  0.00000000000E+00 -0.27224036307E+03  0.27224036307E+03  0.00000000000E+00 0.  1.
        6    2    1    2  502    0  0.98724143860E+02  0.82972424144E+02 -0.11827797918E+03  0.24879677438E+03  0.17685947764E+03 0.  0.
       24    2    3    3    0    0  0.13516642831E+03  0.40122833453E+02 -0.90387748277E+02  0.18583581426E+03  0.80530737714E+02 0.  0.
       -6    2    1    2    0  501 -0.98724143860E+02 -0.82972424144E+02  0.43104629397E+02  0.22051060198E+03  0.17359734088E+03 0.  0.
      -24    2    5    5    0    0 -0.10869847432E+03 -0.29131266147E+02  0.78157746831E+02  0.15532495475E+03  0.73165696821E+02 0.  0.
        5    1    3    3  502    0 -0.36442284452E+02  0.42849590691E+02 -0.27890230906E+02  0.62960960114E+02  0.47000000000E+01 0. -1.
        4    1    4    4  503    0  0.23936505302E+02  0.43815454668E+02 -0.38475617248E+02  0.63032717509E+02  0.00000000000E+00 0. -1.
       -3    1    4    4    0  503  0.11122992301E+03 -0.36926212151E+01 -0.51912131028E+02  0.12280309675E+03  0.00000000000E+00 0.  1.
       -5    1    5    5    0  501  0.99743304598E+01 -0.53841157996E+02 -0.35053117434E+02  0.65185647227E+02  0.47000000000E+01 0.  1.
       13    1    6    6    0    0 -0.79534269169E+02 -0.53725274569E+02  0.53217573073E+02  0.10974613972E+03  0.00000000000E+00 0. -1.
      -14    1    6    6    0    0 -0.29164205151E+02  0.24594008422E+02  0.24940173758E+02  0.45578815029E+02  0.00000000000E+00 0.  1.
</event>
<event>
12   0  0.1544783E-01  0.2835567E+03  0.7957747E-01  0.1101734E+00
       21   -1    0    0  501  503  0.00000000000E+00  0.00000000000E+00  0.16303606403E+03  0.16303606403E+03  0.00000000000E+00 0.  1.
       21   -1    0    0  503  504  0.00000000000E+00  0.00000000000E+00 -0.49398793685E+03  0.49398793685E+03  0.00000000000E+00 0. -1.
        6    2    1    2  501    0  0.21884300624E+03 -0.74975783756E+01 -0.20787540582E+03  0.34790876130E+03  0.17285788030E+03 0.  0.
       24    2    3    3    0    0  0.47573262963E+02  0.25317875127E+02 -0.35933835728E+02  0.10296760004E+03  0.80042963207E+02 0.  0.
       -6    2    1    2    0  504 -0.21884300624E+03  0.74975783756E+01 -0.12307646700E+03  0.30911523959E+03  0.18015532064E+03 0.  0.
      -24    2    5    5    0    0 -0.97150212924E+02  0.61034082880E+02 -0.10597415001E+03  0.17498890919E+03  0.78913083365E+02 0.  0.
        5    1    3    3  501    0  0.17126974328E+03 -0.32815453502E+02 -0.17194157010E+03  0.24494116126E+03  0.47000000000E+01 0. -1.
      -11    1    4    4    0    0 -0.15239350408E+02 -0.22734653783E+01 -0.30470880230E+02  0.34144999453E+02  0.00000000000E+00 0.  1.
       12    1    4    4    0    0  0.62812613371E+02  0.27591340505E+02 -0.54629554984E+01  0.68822600591E+02  0.00000000000E+00 0. -1.
       -5    1    5    5    0  504 -0.12169279331E+03 -0.53536504504E+02 -0.17102316991E+02  0.13412633040E+03  0.47000000000E+01 0.  1.
        3    1    6    6  502    0 -0.64795187683E+02  0.37401133927E+02 -0.11177675883E+03  0.13450392180E+03  0.00000000000E+00 0. -1.
       -4    1    6    6    0  502 -0.32355025241E+02  0.23632948952E+02  0.58026088253E+01  0.40484987387E+02  0.00000000000E+00 0.  1.
</event>
<event>
12   0  0.1544783E-01  0.2348115E+03  0.7957747E-01  0.1130399E+00
       21   -1    0    0  504  503  0.00000000000E+00  0.00000000000E+00  0.21614392013E+03  0.21614392013E+03  0.00000000000E+00 0. -1.
       21   -1    0    0  501  504  0.00000000000E+00  0.00000000000E+00 -0.41686828935E+03  0.41686828935E+03  0.00000000000E+00 0. -1.
        6    2    1    2  501    0  0.54014098186E+01  0.15872255189E+03 -0.29777211536E+03  0.37893600413E+03  0.17234337480E+03 0.  0.
       24    2    3    3    0    0  0.80537046739E+00  0.18286381587E+02 -0.17042882292E+03  0.18924719150E+03  0.80208948607E+02 0.  0.
       -6    2    1    2    0  503 -0.54014098186E+01 -0.15872255189E+03  0.97047746138E+02  0.25407620534E+03  0.17295788326E+03 0.  0.
      -24    2    5    5    0    0 -0.26070005554E+02 -0.10996060420E+03  0.13108443038E+03  0.19094535499E+03  0.80659909729E+02 0.  0.
        5    1    3    3  501    0  0.45960393512E+01  0.14043617031E+03 -0.12734329244E+03  0.18968881263E+03  0.47000000000E+01 0. -1.
      -13    1    4    4    0    0 -0.26413382796E+02 -0.33662165504E+01 -0.16249781760E+02  0.31193807268E+02  0.00000000000E+00 0.  1.
       14    1    4    4    0    0  0.27218753263E+02  0.21652598137E+02 -0.15417904116E+03  0.15805338424E+03  0.00000000000E+00 0. -1.
       -5    1    5    5    0  503  0.20668595735E+02 -0.48761947691E+02 -0.34036684240E+02  0.63130850353E+02  0.47000000000E+01 0.  1.
        1    1    6    6  502    0  0.26202743180E+02 -0.17727692460E+02  0.20200815448E+02  0.37535686685E+02  0.00000000000E+00 0. -1.
       -2    1    6    6    0  502 -0.52272748734E+02 -0.92232911744E+02  0.11088361493E+03  0.15340966830E+03  0.00000000000E+00 0.  1.
</event>
<event>
12   0  0.1544783E-01  0.1944637E+03  0.7957747E-01  0.1160580E+00
        2   -1    0    0  502    0  0.00000000000E+00  0.00000000000E+00  0.88850428735E+03  0.88850428735E+03  0.00000000000E+00 0.  1.
       -2   -1    0    0    0  501  0.00000000000E+00  0.00000000000E+00 -0.42675163350E+02  0.42675163350E+02  0.00000000000E+00 0. -1.
        6    2    1    2  502    0 -0.89059709656E+02  0.41266369473E+00  0.44814153717E+03  0.48874387104E+03  0.17351637377E+03 0.  0.
       24    2    3    3    0    0 -0.38678423681E+02 -0.28177799771E+02  0.15858192156E+03  0.19340923106E+03  0.99844358658E+02 0.  0.
       -6    2    1    2    0  501  0.89059709656E+02 -0.41266369473E+00  0.39768758683E+03  0.44243557966E+03  0.17222666244E+03 0.  0.
      -24    2    5    5    0    0  0.68810063989E+02 -0.66262972511E+02  0.23655316812E+03  0.26712812912E+03  0.79211297110E+02 0.  0.
        5    1    3    3  502    0 -0.50381285975E+02  0.28590463466E+02  0.28955961561E+03  0.29533463998E+03  0.47000000000E+01 0. -1.
        2    1    4    4  503    0  0.40566785548E+01 -0.29130614245E+02  0.25433126522E+00  0.29412820531E+02  0.00000000000E+00 0. -1.
       -1    1    4    4    0  503 -0.42735102236E+02  0.95281447412E+00  0.15832759029E+03  0.16399641053E+03  0.00000000000E+00 0.  1.
       -5    1    5    5    0  501  0.20249645667E+02  0.65850308817E+02  0.16113441871E+03  0.17530745053E+03  0.47000000000E+01 0.  1.
       11    1    6    6    0    0  0.82909355103E+01 -0.54495355933E+02  0.67283181438E+02  0.86979939839E+02  0.00000000000E+00 0. -1.
      -12    1    6    6    0    0  0.60519128479E+02 -0.11767616578E+02  0.16926998668E+03  0.18014818929E+03  0.00000000000E+00 0.  1.
</event>
<event>
12   0  0.1544783E-01  0.3858316E+03  0.7957747E-01  0.1057932E+00
        2   -1    0    0  502    0  0.00000000000E+00  0.00000000000E+00  0.75413428744E+03  0.75413428744E+03  0.00000000000E+00 0. -1.
       -2   -1    0    0    0  501  0.00000000000E+00  0.00000000000E+00 -0.24248906770E+03  0.24248906770E+03  0.00000000000E+00 0.  1.
        6    2    1    2  502    0 -0.29200225530E+03  0.18820297577E+03  0.46946709376E+03  0.60625034120E+03  0.16264823055E+03 0.  0.
       24    2    3    3    0    0 -0.29326909670E+03  0.16034007653E+03  0.38309385566E+03  0.51536375088E+03  0.84398994430E+02 0.  0.
       -6    2    1    2    0  501  0.29200225530E+03 -0.18820297577E+03  0.42178125987E+02  0.39037301394E+03  0.17299253890E+03 0.  0.
      -24    2    5    5    0    0  0.21055795418E+03 -0.84232538668E+02 -0.25786543419E+02  0.24176509940E+03  0.79722298198E+02 0.  0.
        5    1    3    3  502    0  0.12668413952E+01  0.27862899237E+02  0.86373238095E+02  0.90886590320E+02  0.47000000000E+01 0. -1.
      -11    1    4    4    0    0 -0.29764604535E+03  0.15938022476E+03  0.38339972427E+03  0.51087236462E+03  0.00000000000E+00 0.  1.
       12    1    4    4    0    0  0.43769486568E+01  0.95985176799E+00 -0.30586861233E+00  0.44913862636E+01  0.00000000000E+00 0. -1.
       -5    1    5    5    0  501  0.81444301124E+02 -0.10397043710E+03  0.67964669406E+02  0.14860791454E+03  0.47000000000E+01 0.  1.
        3    1    6    6  503    0  0.89759003715E+02 -0.11072249613E+02  0.21267781855E+02  0.92906361486E+02  0.00000000000E+00 0. -1.
       -4    1    6    6    0  503  0.12079895046E+03 -0.73160289054E+02 -0.47054325274E+02  0.14885873792E+03  0.00000000000E+00 0.  1.
</event>
<event>
12   0  0.1544783E-01  0.1911639E+03  0.7957747E-01  0.1163399E+00
       21   -1    0    0  501  503  0.00000000000E+00  0.00000000000E+00  0.21845919085E+03  0.21845919085E+03  0.00000000000E+00 0. -1.
       21   -1    0    0  503  504  0.00000000000E+00  0.00000000000E+00 -0.16694021673E+03  0.16694021673E+03  0.00000000000E+00 0. -1.
        6    2    1    2  501    0  0.57785645681E+02 -0.39610787334E+02  0.26313481977E+02  0.19258100648E+03  0.17744534202E+03 0.  0.
       24    2    3    3    0    0  0.75003879622E+02 -0.52327635885E+02 -0.34447110801E+02  0.12798901432E+03  0.82648780438E+02 0.  0.
       -6    2    1    2    0  504 -0.57785645681E+02  0.39610787334E+02  0.25205492151E+02  0.19281840110E+03  0.17786349723E+03 0.  0.
      -24    2    5    5    0    0  0.17171805752E+00  0.43906709619E+02 -0.53558909657E+02  0.94821299345E+02  0.64766452498E+02 0.  0.
        5    1    3    3  501    0 -0.17218233941E+02  0.12716848551E+02  0.60760592778E+02  0.64591992165E+02  0.47000000000E+01 0. -1.
      -11    1    4    4    0    0  0.53004095032E+02  0.88900361115E+01 -0.32708415418E+02  0.62915079841E+02  0.00000000000E+00 0.  1.
       12    1    4    4    0    0  0.21999784590E+02 -0.61217671996E+02 -0.17386953831E+01  0.65073934477E+02  0.00000000000E+00 0. -1.
       -5    1    5    5    0  504 -0.57957363739E+02 -0.42959222857E+01  0.78764401808E+02  0.97997101753E+02  0.47000000000E+01 0.  1.
        1    1    6    6  502    0  0.29699096434E+02  0.11085005156E+02 -0.34146742862E+02  0.46593065111E+02  0.00000000000E+00 0. -1.
       -2    1    6    6    0  502 -0.29527378377E+02  0.32821704464E+02 -0.19412166794E+02  0.48228234234E+02  0.00000000000E+00 0.  1.
</event>
<event>
12   0  0.1544783E-01  0.1907766E+03  0.7957747E-01  0.1163734E+00
       21   -1    0    0  501  503  0.00000000000E+00  0.00000000000E+00  0.23325089743E+03  0.23325089743E+03  0.00000000000E+00 0. -1.
       21   -1    0    0  503  504  0.00000000000E+00  0.00000000000E+00 -0.20592000245E+03  0.20592000245E+03  0.00000000000E+00 0.  1.
        6    2    1    2  501    0 -0.31944587673E+02  0.71030012600E+02 -0.95072340834E+02  0.21315360435E+03  0.17415507367E+03 0.  0.
       24    2    3    3    0    0  0.72069588805E+01  0.10535255614E+03 -0.88544399392E+02  0.16046978699E+03  0.82215208633E+02 0.  0.
       -6    2    1    2    0  504  0.31944587673E+02 -0.71030012600E+02  0.12240323582E+03  0.22601729553E+03  0.17330766390E+03 0.  0.
      -24    2    5    5    0    0 -0.13414923645E+02 -0.19548938071E+02  0.14023661317E+03  0.15496868084E+03  0.61537494341E+02 0.  0.
        5    1    3    3  501    0 -0.39151546554E+02 -0.34322543539E+02 -0.65279414423E+01  0.52683817363E+02  0.47000000000E+01 0. -1.
        2    1    4    4  502    0 -0.32185757112E+02  0.78153989440E+02 -0.44985720110E+02  0.95748023688E+02  0.00000000000E+00 0. -1.
       -1    1    4    4    0  502  0.39392715993E+02  0.27198566698E+02 -0.43558679281E+02  0.64721763298E+02  0.00000000000E+00 0.  1.
       -5    1    5    5    0  504  0.45359511318E+02 -0.51481074529E+02 -0.17833377354E+02  0.71048614691E+02  0.47000000000E+01 0.  1.
       13    1    6    6    0    0  0.97334666918E+01 -0.33309241678E+02  0.50466064761E+02  0.61245976582E+02  0.00000000000E+00 0. -1.
      -14    1    6    6    0    0 -0.23148390336E+02  0.13760303607E+02  0.89770548412E+02  0.93722704255E+02  0.00000000000E+00 0.  1.
</event>
<event>
12   0  0.1544783E-01  0.4166779E+03  0.7957747E-01  0.1047532E+00
       21   -1    0    0  504  503  0.00000000000E+00  0.00000000000E+00  0.10736562322E+04  0.10736562322E+04  0.00000000000E+00 0. -1.
       21   -1    0    0  501  504  0.00000000000E+00  0.00000000000E+00 -0.16843860970E+03  0.16843860970E+03  0.00000000000E+00 0. -1.
        6    2    1    2  501    0 -0.31813950434E+03  0.20400570033E+03  0.32290940176E+03  0.52606181131E+03  0.17216119650E+03 0.  0.
       24    2    3    3    0    0 -0.94477069090E+02  0.57017817749E+02  0.56089077946E+02  0.14811274362E+03  0.81329281517E+02 0.  0.
       -6    2    1    2    0  503  0.31813950434E+03 -0.20400570033E+03  0.58230822073E+03  0.71603303059E+03  0.17546899151E+03 0.  0.
      -24    2    5    5    0    0  0.31202870286E+03 -0.22526955749E+03  0.56290526112E+03  0.68623272257E+03  0.77102085598E+02 0.  0.
        5    1    3    3  501    0 -0.22366243525E+03  0.14698788258E+03  0.26682032382E+03  0.37794906769E+03  0.47000000000E+01 0. -1.
      -11    1    4    4    0    0 -0.17935842331E+02 -0.13183922445E+02  0.36002650173E+02  0.42328490058E+02  0.00000000000E+00 0.  1.
       12    1    4    4    0    0 -0.76541226760E+02  0.70201740195E+02  0.20086427773E+02  0.10578425356E+03  0.00000000000E+00 0. -1.
       -5    1    5    5    0  503  0.61108014864E+01  0.21263857162E+02  0.19402959610E+02  0.29800308016E+02  0.47000000000E+01 0.  1.
        1    1    6    6  502    0  0.14446801590E+03 -0.58047430681E+02  0.22991482565E+03  0.27767127846E+03  0.00000000000E+00 0. -1.
       -2    1    6    6    0  502  0.16756068695E+03 -0.16722212681E+03  0.33299043547E+03  0.40856144412E+03  0.00000000000E+00 0.  1.
</event>
<event>
12   0  0.1544783E-01  0.1907579E+03  0.7957747E-01  0.1163751E+00
       21   -1    0    0  504  503  0.00000000000E+00  0.00000000000E+00  0.38965410147E+03  0.38965410147E+03  0.00000000000E+00 0. -1.
       21   -1    0    0  501  504  0.00000000000E+00  0.00000000000E+00 -0.16967772702E+03  0.16967772702E+03  0.00000000000E+00 0.  1.
        6    2    1    2  501    0 -0.39876202201E+02  0.67643654933E+02 -0.78300243887E+02  0.20620255608E+03  0.17384703157E+03 0.  0.
       24    2    3    3    0    0 -0.63904420855E+02  0.77662246012E+01  0.18813964821E+01  0.10317902766E+03  0.80611927452E+02 0.  0.
       -6    2    1    2    0  503  0.39876202201E+02 -0.67643654933E+02  0.29827661834E+03  0.35312927240E+03  0.17194640568E+03 0.  0.
      -24    2    5    5    0    0  0.20043612247E+02  0.44472938305E+01  0.25153350519E+03  0.26482612895E+03  0.80263625158E+02 0.  0.
        5    1    3    3  501    0  0.24028218654E+02  0.59877430332E+02 -0.80181640370E+02  0.10302352842E+03  0.47000000000E+01 0. -1.
      -11    1    4    4    0    0 -0.51445217509E+02 -0.65745460150E+01 -0.34393076855E+02  0.62231172216E+02  0.00000000000E+00 0.  1.
       12    1    4    4    0    0 -0.12459203346E+02  0.14340770616E+02  0.36274473337E+02  0.40947855447E+02  0.00000000000E+00 0. -1.
       -5    1    5    5    0  503  0.19832589955E+02 -0.72090948764E+02  0.46743113145E+02  0.88303143458E+02  0.47000000000E+01 0.  1.
        3    1    6    6  502    0 -0.19749400424E+02  0.24607987884E+02  0.15900943662E+03  0.16210981715E+03  0.00000000000E+00 0. -1.
       -4    1    6    6    0  502  0.39793012670E+02 -0.20160694053E+02  0.92524068578E+02  0.10271631179E+03  0.00000000000E+00 0.  1.
</event>
<event>
12   0  0.1544783E-01  0.1910380E+03  0.7957747E-01  0.1163508E+00
       21   -1    0    0  501  503  0.00000000000E+00  0.00000000000E+00  0.14032342403E+03  0.14032342403E+03  0.00000000000E+00 0. -1.
       21   -1    0    0  503  504  0.00000000000E+00  0.00000000000E+00 -0.40720178747E+03  0.40720178747E+03  0.00000000000E+00 0. -1.
        6    2    1    2  501    0 -0.78596443942E+02  0.23946583394E+01  0.31353780682E+02  0.19359388062E+03  0.17410455382E+03 0.  0.
       24    2    3    3    0    0 -0.77229319819E+02  0.57827740872E+02  0.49535737080E+02  0.13505014307E+03  0.80475688517E+02 0.  0.
       -6    2    1    2    0  504  0.78596443942E+02 -0.23946583394E+01 -0.29823214412E+03  0.35393133088E+03  0.17361405418E+03 0.  0.
      -24    2    5    5    0    0  0.87223215807E+02 -0.26492499133E+02 -0.30395220096E+03  0.32728670339E+03  0.80124302587E+02 0.  0.
        5    1    3    3  501    0 -0.13671241231E+01 -0.55433082533E+02 -0.18181956398E+02  0.58543737546E+02  0.47000000000E+01 0. -1.
      -13    1    4    4    0    0 -0.76006305717E+01  0.16911219646E+02 -0.20864656487E+02  0.27912234331E+02  0.00000000000E+00 0.  1.
       14    1    4    4    0    0 -0.69628689247E+02  0.40916521226E+02  0.70400393567E+02  0.10713790874E+03  0.00000000000E+00 0. -1.
       -5    1    5    5    0  504 -0.86267718651E+01  0.24097840794E+02  0.57200568423E+01  0.26644627489E+02  0.47000000000E+01 0.  1.
        3    1    6    6  502    0 -0.45703607324E+01 -0.29175430398E+02 -0.74714038260E+02  0.80338542738E+02  0.00000000000E+00 0. -1.
       -4    1    6    6    0  502  0.91793576540E+02  0.26829312652E+01 -0.22923816270E+03  0.24694816066E+03  0.00000000000E+00 0.  1.
</event>
<event>
12   0  0.1544783E-01  0.1872870E+03  0.7957747E-01  0.1166793E+00
       21   -1    0    0  501  503  0.00000000000E+00  0.00000000000E+00  0.67867373721E+02  0.67867373721E+02  0.00000000000E+00 0.  1.
       21   -1    0    0  503  504  0.00000000000E+00  0.00000000000E+00 -0.53429242140E+03  0.53429242140E+03  0.00000000000E+00 0.  1.
        6    2    1    2  501    0 -0.60284257918E+02 -0.27267211632E+02 -0.16164789263E+03  0.24443706618E+03  0.17100217995E+03 0.  0.
       24    2    3    3    0    0  0.14159562687E+02 -0.55571934900E+02 -0.11570975041E+03  0.15237489862E+03  0.80874162896E+02 0.  0.
       -6    2    1    2    0  504  0.60284257918E+02  0.27267211632E+02 -0.30477715505E+03  0.35772272894E+03  0.17521057040E+03 0.  0.
      -24    2    5    5    0    0  0.50263872851E+02 -0.97985355165E+01 -0.30708688973E+03  0.31897092121E+03  0.69409095354E+02 0.  0.
        5    1    3    3  501    0 -0.74443820605E+02  0.28304723268E+02 -0.45938142214E+02  0.92062167559E+02  0.47000000000E+01 0. -1.
        2    1    4    4  502    0  0.39634254907E+02 -0.59536540437E+02 -0.71092333054E+02  0.10084440306E+03  0.00000000000E+00 0. -1.
       -1    1    4    4    0  502 -0.25474692220E+02  0.39646055375E+01 -0.44617417359E+02  0.51530495559E+02  0.00000000000E+00 0.  1.
       -5    1    5    5    0  504  0.10020385067E+02  0.37065747148E+02  0.23097346827E+01  0.38751807736E+02  0.47000000000E+01 0.  1.
       13    1    6    6    0    0 -0.17391069885E+02  0.21855463654E+01 -0.65220006033E+02  0.67534251396E+02  0.00000000000E+00 0. -1.
      -14    1    6    6    0    0  0.67654942736E+02 -0.11984081882E+02 -0.24186688370E+03  0.25143666981E+03  0.00000000000E+00 0.  1.
</event>
<event>
12   0  0.1544783E-01  0.1853830E+03  0.7957747E-01  0.1168493E+00
       21   -1    0    0  501  503  0.00000000000E+00  0.00000000000E+00  0.19341196765E+03  0.19341196765E+03  0.00000000000E+00 0. -1.
       21   -1    0    0  503  504  0.00000000000E+00  0.00000000000E+00 -0.17701111948E+03  0.17701111948E+03  0.00000000000E+00 0. -1.
        6    2    1    2  501    0 -0.56179445384E+02 -0.31399231748E+02  0.59906804800E+01  0.18474805377E+03  0.17307198872E+03 0.  0.
       24    2    3    3    0    0 -0.85111252975E+02 -0.47224012084E+02 -0.36767096809E+02  0.13054666373E+03  0.78845287135E+02 0.  0.
       -6    2    1    2    0  504  0.56179445384E+02  0.31399231748E+02  0.10410167690E+02  0.18567503336E+03  0.17385282450E+03 0.  0.
      -24    2    5    5    0    0  0.96097775840E+02  0.58644248013E+02  0.10654382697E+02  0.13711668023E+03  0.77547003688E+02 0.  0.
        5    1    3    3  501    0  0.28931807591E+02  0.15824780335E+02  0.42757777289E+02  0.54201390036E+02  0.47000000000E+01 0. -1.
        4    1    4    4  502    0 -0.57795803527E+02 -0.59310621123E+02 -0.51209879040E+02  0.97368148768E+02  0.00000000000E+00 0. -1.
       -3    1    4    4    0  502 -0.27315449448E+02  0.12086609039E+02  0.14442782230E+02  0.33178514963E+02  0.00000000000E+00 0.  1.
       -5    1    5    5    0  504 -0.39918330456E+02 -0.27245016265E+02 -0.24421500694E+00  0.48558353130E+02  0.47000000000E+01 0.  1.
       11    1    6    6    0    0  0.68940556846E+02  0.37830225392E+02  0.43346366152E+02  0.89793283658E+02  0.00000000000E+00 0. -1.
      -12    1    6    6    0    0  0.27157218994E+02  0.20814022621E+02 -0.32691983455E+02  0.47323396575E+02  0.00000000000E+00 0.  1.
</event>
<event>
12   0  0.1544783E-01  0.1961684E+03  0.7957747E-01  0.1159147E+00
       21   -1    0    0  501  503  0.00000000000E+00  0.00000000000E+00  0.51662361093E+02  0.51662361093E+02  0.00000000000E+00 0. -1.
       21   -1    0    0  503  504  0.00000000000E+00  0.00000000000E+00 -0.12415496680E+04  0.12415496680E+04  0.00000000000E+00 0. -1.
        6    2    1    2  501    0  0.43497011867E+02  0.78391442425E+02 -0.18327969508E+03  0.26766781294E+03  0.17325531209E+03 0.  0.
       24    2    3    3    0    0 -0.17039935306E+02  0.58990676671E+01 -0.30141641053E+02  0.87686647364E+02  0.80344702414E+02 0.  0.
       -6    2    1    2    0  504 -0.43497011867E+02 -0.78391442425E+02 -0.10066076118E+04  0.10255442161E+04  0.17448451739E+03 0.  0.
      -24    2    5    5    0    0 -0.56484510732E+02  0.59828195864E+01 -0.34885256280E+03  0.36225582809E+03  0.79403276576E+02 0.  0.
        5    1    3    3  501    0  0.60536947173E+02  0.72492374758E+02 -0.15313805402E+03  0.17998116557E+03  0.47000000000E+01 0. -1.
        2    1    4    4  502    0 -0.47314862802E+02  0.67016847665E+01 -0.44900244002E+01  0.47997595146E+02  0.00000000000E+00 0. -1.
       -1    1    4    4    0  502  0.30274927496E+02 -0.80261709937E+00 -0.25651616653E+02  0.39689052218E+02  0.00000000000E+00 0.  1.
       -5    1    5    5    0  504  0.12987498865E+02 -0.84374262012E+02 -0.65775504903E+03  0.66328838806E+03  0.47000000000E+01 0.  1.
       11    1    6    6    0    0  0.11048865388E+02 -0.19913507753E+02 -0.12345117539E+03  0.12553413051E+03  0.00000000000E+00 0. -1.
      -12    1    6    6    0    0 -0.67533376121E+02  0.25896327339E+02 -0.22540138740E+03  0.23672169758E+03  0.00000000000E+00 0.  1.
</event>
<event>
12   0  0.1544783E-01  0.1843866E+03  0.7957747E-01  0.1169392E+00
       21   -1    0    0  504  503  0.00000000000E+00  0.00000000000E+00  0.83843530045E+02  0.83843530045E+02  0.00000000000E+00 0.  1.
       21   -1    0    0  501  504  0.00000000000E+00  0.00000000000E+00 -0.51736568783E+03  0.51736568783E+03  0.00000000000E+00 0.  1.
        6    2    1    2  501    0 -0.53678143300E+02  0.34046244936E+02 -0.35953395840E+03  0.40405829219E+03  0.17308363983E+03 0.  0.
       24    2    3    3    0    0 -0.66684304334E+02  0.28751305723E+01 -0.11359938933E+03  0.15577075553E+03  0.83094188730E+02 0.  0.
       -6    2    1    2    0  503  0.53678143300E+02 -0.34046244936E+02 -0.73988199382E+02  0.19715092569E+03  0.17132934363E+03 0.  0.
      -24    2    5    5    0    0 -0.58020776564E+01  0.23077260328E+02 -0.75008094636E+02  0.11454268321E+03  0.83232133022E+02 0.  0.
        5    1    3    3  501    0  0.13006161034E+02  0.31171114363E+02 -0.24593456907E+03  0.24828753666E+03  0.47000000000E+01 0. -1.
      -13    1    4    4    0    0  0.82549402821E+01 -0.24865837894E+02 -0.34632614681E+02  0.43426627003E+02  0.00000000000E+00 0.  1.
       14    1    4    4    0    0 -0.74939244616E+02  0.27740968466E+02 -0.78966774652E+02  0.11234412853E+03  0.00000000000E+00 0. -1.
       -5    1    5    5    0  503  0.59480220957E+02 -0.57123505264E+02  0.10198952533E+01  0.82608242476E+02  0.47000000000E+01 0.  1.
        1    1    6    6  502    0 -0.42925850519E+02  0.16346101839E+01 -0.45005104982E+02  0.62215432713E+02  0.00000000000E+00 0. -1.
       -2    1    6    6    0  502  0.37123772862E+02  0.21442650144E+02 -0.30002989654E+02  0.52327250500E+02  0.00000000000E+00 0.  1.
</event>
<event>
12   0  0.1544783E-01  0.2110149E+03  0.7957747E-01  0.1147308E+00
       -2   -1    0    0    0  501  0.00000000000E+00  0.00000000000E+00  0.29078454526E+03  0.29078454526E+03  0.00000000000E+00 0.  1.
        2   -1    0    0  502    0  0.00000000000E+00  0.00000000000E+00 -0.17241693950E+03  0.17241693950E+03  0.00000000000E+00 0. -1.
        6    2    1    2  502    0  0.28668603572E+02 -0.11713515706E+03  0.13669430792E+03  0.25157706374E+03  0.17338728712E+03 0.  0.
       24    2    3    3    0    0  0.11910399406E+02 -0.14529996413E+03  0.14124405193E+03  0.21815725024E+03  0.79929759394E+02 0.  0.
       -6    2    1    2    0  501 -0.28668603572E+02  0.11713515706E+03 -0.18326702156E+02  0.21162442102E+03  0.17293494068E+03 0.  0.
      -24    2    5    5    0    0  0.35744167576E+02  0.65990925473E+02 -0.34660870239E+02  0.12763851411E+03  0.97251049345E+02 0.  0.
        5    1    3    3  502    0  0.16758204166E+02  0.28164807068E+02 -0.45497440114E+01  0.33419813504E+02  0.47000000000E+01 0. -1.
        2    1    4    4  503    0 -0.27882815799E+02 -0.61013008847E+02  0.31314641773E+02  0.74031381554E+02  0.00000000000E+00 0. -1.
       -1    1    4    4    0  503  0.39793215206E+02 -0.84286955284E+02  0.10992941015E+03  0.14412586869E+03  0.00000000000E+00 0.  1.
       -5    1    5    5    0  501 -0.64412771148E+02  0.51144231590E+02  0.16334168083E+02  0.83985906907E+02  0.47000000000E+01 0.  1.
       13    1    6    6    0    0  0.11748968600E+02  0.71790016449E+01 -0.58269683939E+02  0.59874304957E+02  0.00000000000E+00 0. -1.
      -14    1    6    6    0    0  0.23995198976E+02  0.58811923828E+02  0.23608813699E+02  0.67764209156E+02  0.00000000000E+00 0.  1.
</event>
<event>
12   0  0.1544783E-01  0.2004252E+03  0.7957747E-01  0.1155638E+00
       21   -1    0    0  504  503  0.00000000000E+00  0.00000000000E+00  0.28233349633E+03  0.28233349633E+03  0.00000000000E+00 0. -1.
       21   -1    0    0  501  504  0.00000000000E+00  0.00000000000E+00 -0.16145950694E+03  0.16145950694E+03  0.00000000000E+00 0. -1.
        6    2    1    2  501    0 -0.89057426407E+02  0.37243002930E+02 -0.16482594962E+02  0.20081751455E+03  0.17532179484E+03 0.  0.
       24    2    3    3    0    0 -0.24521563270E+02  0.85242270533E+02 -0.21768897043E+01  0.11899117084E+03  0.79288133656E+02 0.  0.
       -6    2    1    2    0  503  0.89057426407E+02 -0.37243002930E+02  0.13735658436E+03  0.24297548873E+03  0.17564734667E+03 0.  0.
      -24    2    5    5    0    0  0.72314542464E+02 -0.83979398772E+02  0.52378503139E+02  0.14444641106E+03  0.76415480151E+02 0.  0.
        5    1    3    3  501    0 -0.64535863136E+02 -0.47999267602E+02 -0.14305705258E+02  0.81826343705E+02  0.47000000000E+01 0. -1.
      -13    1    4    4    0    0 -0.36179053518E+02  0.48644663691E+01  0.72807597619E+01  0.37223600164E+02  0.00000000000E+00 0.  1.
       14    1    4    4    0    0  0.11657490247E+02  0.80377804164E+02 -0.94576494663E+01  0.81767570677E+02  0.00000000000E+00 0. -1.
       -5    1    5    5    0  503  0.16742883943E+02  0.46736395842E+02  0.84978081217E+02  0.98529077669E+02  0.47000000000E+01 0.  1.
        3    1    6    6  502    0  0.80260750868E+02 -0.42076073113E+02  0.25916805129E+02  0.94254256384E+02  0.00000000000E+00 0. -1.
       -4    1    6    6    0  502 -0.79462084038E+01 -0.41903325659E+02  0.26461698010E+02  0.50192154674E+02  0.00000000000E+00 0.  1.
</event>
<event>
12   0  0.1544783E-01  0.2888396E+03  0.7957747E-01  0.1099007E+00
       21   -1    0    0  501  503  0.00000000000E+00  0.00000000000E+00  0.28467135054E+03  0.28467135054E+03  0.00000000000E+00 0.  1.
       21   -1    0    0  503  504  0.00000000000E+00  0.00000000000E+00 -0.29724045877E+03  0.29724045877E+03  0.00000000000E+00 0. -1.
        6    2    1    2  501    0  0.18924075728E+02  0.23042455979E+03  0.28267213131E+02  0.29019979333E+03  0.17309906502E+03 0.  0.
       24    2    3    3    0    0 -0.18547736186E+02  0.14155079057E+03 -0.44066114510E+02  0.16954788148E+03  0.80149964684E+02 0.  0.
       -6    2    1    2    0  504 -0.18924075728E+02 -0.23042455979E+03 -0.40836321365E+02  0.29171201598E+03  0.17313202110E+03 0.  0.
      -24    2    5    5    0    0 -0.41655528471E+02 -0.12158768592E+03  0.37609247670E+02  0.15555776023E+03  0.79151834084E+02 0.  0.
        5    1    3    3  501    0  0.37471811914E+02  0.88873769224E+02  0.72333327641E+02  0.12065191184E+03  0.47000000000E+01 0. -1.
      -13    1    4    4    0    0 -0.27455129721E+02  0.42563148899E+02  0.16367611693E+02  0.53228793944E+02  0.00000000000E+00 0.  1.
       14    1    4    4    0    0  0.89073935355E+01  0.98987641668E+02 -0.60433726203E+02  0.11631908754E+03  0.00000000000E+00 0. -1.
       -5    1    5    5    0  504  0.22731452743E+02 -0.10883687387E+03 -0.78445569034E+02  0.13615425575E+03  0.47000000000E+01 0.  1.
        1    1    6    6  502    0 -0.47190370145E+02 -0.46664038468E+02  0.44822512992E+02  0.80084462859E+02  0.00000000000E+00 0. -1.
       -2    1    6    6    0  502  0.55348416738E+01 -0.74923647454E+02 -0.72132653222E+01  0.75473297376E+02  0.00000000000E+00 0.  1.
</event>
<event>
12   0  0.1544783E-01  0.1791079E+03  0.7957747E-01  0.1174258E+00
       21   -1    0    0  501  503  0.00000000000E+00  0.00000000000E+00  0.71030750405E+02  0.71030750405E+02  0.00000000000E+00 0.  1.
       21   -1    0    0  503  504  0.00000000000E+00  0.00000000000E+00 -0.45411166632E+03  0.45411166632E+03  0.00000000000E+00 0.  1.
        6    2    1    2  501    0 -0.43632722257E+02  0.16099456100E+02 -0.16898859315E+03  0.24600955365E+03  0.17262835495E+03 0.  0.
       24    2    3    3    0    0 -0.95850339540E+02  0.57077599343E+01 -0.11468370740E+03  0.16981390075E+03  0.80402375791E+02 0.  0.
       -6    2    1    2    0  504  0.43632722257E+02 -0.16099456100E+02 -0.21409232277E+03  0.27913286308E+03  0.17296423227E+03 0.  0.
      -24    2    5    5    0    0  0.53871084160E+02 -0.70829278928E+02 -0.17286003713E+03  0.20968958450E+03  0.78550932194E+02 0.  0.
        5    1    3    3  501    0  0.52217617283E+02  0.10391696166E+02 -0.54304885750E+02  0.76195652896E+02  0.47000000000E+01 0. -1.
        2    1    4    4  502    0 -0.74886863586E+01  0.29893691862E+02 -0.45761616088E+02  0.55170995491E+02  0.00000000000E+00 0. -1.
       -1    1    4    4    0  502 -0.88361653182E+02 -0.24185931928E+02 -0.68922091308E+02  0.11464290526E+03  0.00000000000E+00 0.  1.
       -5    1    5    5    0  504 -0.10238361903E+02  0.54729822828E+02 -0.41232285646E+02  0.69443278586E+02  0.47000000000E+01 0.  1.
       13    1    6    6    0    0  0.53377167055E+02 -0.77347954655E+02 -0.17805856612E+03  0.20133723207E+03  0.00000000000E+00 0. -1.
      -14    1    6    6    0    0  0.49391710546E+00  0.65186757267E+01  0.51985289887E+01  0.83523524221E+01  0.00000000000E+00 0.  1.
</event>
<event>
12   0  0.1544783E-01  0.1904888E+03  0.7957747E-01  0.1163984E+00
       21   -1    0    0  504  503  0.00000000000E+00  0.00000000000E+00  0.12242895524E+03  0.12242895524E+03  0.00000000000E+00 0.  1.
       21   -1    0    0  501  504  0.00000000000E+00  0.00000000000E+00 -0.29531950238E+03  0.29531950238E+03  0.00000000000E+00 0.  1.
        6    2    1    2  501    0  0.43672903499E+02 -0.65100638453E+02 -0.68865617267E+02  0.20255483320E+03  0.17361040172E+03 0.  0.
       24    2    3    3    0    0  0.29778089187E+02  0.30368996580E+02 -0.53071020030E+02  0.10468207713E+03  0.79578851192E+02 0.  0.
       -6    2    1    2    0  503 -0.43672903499E+02  0.65100638453E+02 -0.10402492987E+03  0.21519362442E+03  0.17129417483E+03 0.  0.
      -24    2    5    5    0    0 -0.92064047604E+01  0.36788224372E+02 -0.13498511004E+03  0.16069449523E+03  0.78508658915E+02 0.  0.
        5    1    3    3  501    0  0.13894814312E+02 -0.95469635033E+02 -0.15794597237E+02  0.97872756066E+02  0.47000000000E+01 0. -1.
        2    1    4    4  502    0 -0.99105585281E+01  0.46381564091E+02 -0.27280223937E+02  0.54714525273E+02  0.00000000000E+00 0. -1.
       -1    1    4    4    0  502  0.39688647715E+02 -0.16012567511E+02 -0.25790796093E+02  0.49967551860E+02  0.00000000000E+00 0.  1.
       -5    1    5    5    0  503 -0.34466498738E+02  0.28312414081E+02  0.30960180171E+02  0.54499129191E+02  0.47000000000E+01 0.  1.
       11    1    6    6    0    0  0.11528431186E+02  0.44495209192E+02 -0.33630034317E+02  0.56953556296E+02  0.00000000000E+00 0. -1.
      -12    1    6    6    0    0 -0.20734835946E+02 -0.77069848199E+01 -0.10135507572E+03  0.10374093894E+03  0.00000000000E+00 0.  1.
</event>
<event>
12   0  0.1544783E-01  0.2243177E+03  0.7957747E-01  0.1137573E+00
        1   -1    0    0  502    0  0.00000000000E+00  0.00000000000E+00  0.34209145074E+03  0.34209145074E+03  0.00000000000E+00 0. -1.
       -1   -1    0    0    0  501  0.00000000000E+00  0.00000000000E+00 -0.15258365661E+03  0.15258365661E+03  0.00000000000E+00 0.  1.
        6    2    1    2  502    0 -0.13251745698E+02  0.13748531085E+03  0.14296788416E+03  0.26903522416E+03  0.18127966371E+03 0.  0.
       24    2    3    3    0    0  0.28196242247E+02  0.64088887393E+01  0.29284151633E+02  0.90583423444E+02  0.80695062639E+02 0.  0.
       -6    2    1    2    0  501  0.13251745698E+02 -0.13748531085E+03  0.46539909973E+02  0.22563988318E+03  0.17224858257E+03 0.  0.
      -24    2    5    5    0    0  0.32735279089E+02 -0.10699114398E+03  0.92489713732E+02  0.16696299887E+03  0.82483892120E+02 0.  0.
        5    1    3    3  502    0 -0.41447987944E+02  0.13107642211E+03  0.11368373253E+03  0.17845180072E+03  0.47000000000E+01 0. -1.
        2    1    4    4  503    0  0.44708296905E+02 -0.87869057616E+01  0.44326576753E+02  0.63567970957E+02  0.00000000000E+00 0. -1.
       -1    1    4    4    0  503 -0.16512054658E+02  0.15195794501E+02 -0.15042425120E+02  0.27015452486E+02  0.00000000000E+00 0.  1.
       -5    1    5    5    0  501 -0.19483533391E+02 -0.30494166875E+02 -0.45949803759E+02  0.58676884310E+02  0.47000000000E+01 0.  1.
       13    1    6    6    0    0 -0.20995868600E+02 -0.43875561891E+02  0.61638144511E+02  0.78518483737E+02  0.00000000000E+00 0. -1.
      -14    1    6    6    0    0  0.53731147689E+02 -0.63115582085E+02  0.30851569221E+02  0.88444515134E+02  0.00000000000E+00 0.  1.
</event>
<event>
12   0  0.1544783E-01  0.1743644E+03  0.7957747E-01  0.1178792E+00
       21   -1    0    0  504  503  0.00000000000E+00  0.00000000000E+00  0.69262533857E+03  0.69262533857E+03  0.00000000000E+00 0.  1.
       21   -1    0    0  501  504  0.00000000000E+00  0.00000000000E+00 -0.11754278451E+03  0.11754278451E+03  0.00000000000E+00 0.  1.
        6    2    1    2  501    0  0.87707929905E+01 -0.12958883620E+02 -0.34644022891E+02  0.17599981735E+03  0.17184547684E+03 0.  0.
       24    2    3    3    0    0  0.30774055694E+02 -0.69603736314E+02 -0.12166224682E+02  0.11103733341E+03  0.79934659417E+02 0.  0.
       -6    2    1    2    0  503 -0.87707929905E+01  0.12958883620E+02  0.60972657695E+03  0.63416830574E+03  0.17366082429E+03 0.  0.
      -24    2    5    5    0    0 -0.57948934971E+02 -0.35095050452E+02  0.40197142072E+03  0.41528028604E+03  0.79290297434E+02 0.  0.
        5    1    3    3  501    0 -0.22003262703E+02  0.56644852694E+02 -0.22477798209E+02  0.64962483932E+02  0.47000000000E+01 0. -1.
        2    1    4    4  502    0  0.46268139387E+02 -0.56066738395E+02  0.17656253626E+02  0.74806170659E+02  0.00000000000E+00 0. -1.
       -1    1    4    4    0  502 -0.15494083694E+02 -0.13536997919E+02 -0.29822478308E+02  0.36231162755E+02  0.00000000000E+00 0.  1.
       -5    1    5    5    0  503  0.49178141981E+02  0.48053934072E+02  0.20775515623E+03  0.21888801970E+03  0.47000000000E+01 0.  1.
       13    1    6    6    0    0 -0.56755141405E+02  0.31137651281E+01  0.14967991120E+03  0.16010907977E+03  0.00000000000E+00 0. -1.
      -14    1    6    6    0    0 -0.11937935658E+01 -0.38208815580E+02  0.25229150953E+03  0.25517120627E+03  0.00000000000E+00 0.  1.
</event>
<event>
12   0  0.1544783E-01  0.2236359E+03  0.7957747E-01  0.1138054E+00
       21   -1    0    0  501  503  0.00000000000E+00  0.00000000000E+00  0.92954242303E+03  0.92954242303E+03  0.00000000000E+00 0. -1.
       21   -1    0    0  503  504  0.00000000000E+00  0.00000000000E+00 -0.83244820822E+02  0.83244820822E+02  0.00000000000E+00 0. -1.
        6    2    1    2  501    0  0.93975036445E+02 -0.10671733675E+03  0.72563300014E+03  0.75931301441E+03  0.17260679453E+03 0.  0.
       24    2    3    3    0    0  0.12384357016E+03 -0.50859905353E+02  0.56516485313E+03  0.58673173457E+03  0.83179668714E+02 0.  0.
       -6    2    1    2    0  504 -0.93975036445E+02  0.10671733675E+03  0.12066460206E+03  0.25347422944E+03  0.17166636642E+03 0.  0.
      -24    2    5    5    0    0 -0.12324776582E+03  0.56228709982E+02  0.58869457710E+02  0.16834653721E+03  0.80766725417E+02 0.  0.
        5    1    3    3  501    0 -0.29868533712E+02 -0.55857431397E+02  0.16046814701E+03  0.17258127984E+03  0.47000000000E+01 0. -1.
      -13    1    4    4    0    0  0.23269551776E+00 -0.26465694864E+02  0.52279950078E+02  0.58597613706E+02  0.00000000000E+00 0.  1.
       14    1    4    4    0    0  0.12361087464E+03 -0.24394210489E+02  0.51288490306E+03  0.52813412086E+03  0.00000000000E+00 0. -1.
       -5    1    5    5    0  504  0.29272729377E+02  0.50488626768E+02  0.61795144354E+02  0.85127692226E+02  0.47000000000E+01 0.  1.
        3    1    6    6  502    0 -0.61176773545E+02  0.48112393079E+02 -0.61728431100E+01  0.78073708643E+02  0.00000000000E+00 0. -1.
       -4    1    6    6    0  502 -0.62070992276E+02  0.81163169031E+01  0.65042300820E+02  0.90272828571E+02  0.00000000000E+00 0.  1.
</event>
<event>
12   0  0.1544783E-01  0.1978388E+03  0.7957747E-01  0.1157759E+00
       21   -1    0    0  501  503  0.00000000000E+00  0.00000000000E+00  0.58778534461E+02  0.58778534461E+02  0.00000000000E+00 0.  1.
       21   -1    0    0  503  504  0.00000000000E+00  0.00000000000E+00 -0.70414112999E+03  0.70414112999E+03  0.00000000000E+00 0.  1.
        6    2    1    2  501    0 -0.92682663749E+02 -0.18057097938E+02 -0.23045614323E+03  0.30372724578E+03  0.17385071449E+03 0.  0.
       24    2    3    3    0    0  0.18754955054E+02  0.29659992992E+01 -0.64081474955E+02  0.10232482835E+03  0.77481543432E+02 0.  0.
       -6    2    1    2    0  504  0.92682663749E+02  0.18057097938E+02 -0.41490645229E+03  0.45919241867E+03  0.17260990199E+03 0.  0.
      -24    2    5    5    0    0  0.18560005292E+02 -0.46109125711E+02 -0.25317350357E+03  0.27000703484E+03  0.79601825865E+02 0.  0.
        5    1    3    3  501    0 -0.11143761880E+03 -0.21023097237E+02 -0.16637466828E+03  0.20140241743E+03  0.47000000000E+01 0. -1.
      -13    1    4    4    0    0 -0.30257254575E+02 -0.28995339561E+00 -0.19559351029E+02  0.36029900640E+02  0.00000000000E+00 0.  1.
       14    1    4    4    0    0  0.49012209630E+02  0.32559526948E+01 -0.44522123925E+02  0.66294927706E+02  0.00000000000E+00 0. -1.
       -5    1    5    5    0  504  0.74122658457E+02  0.64166223649E+02 -0.16173294872E+03  0.18918538383E+03  0.47000000000E+01 0.  1.
        3    1    6    6  502    0 -0.17902224776E+02 -0.52133218919E+02 -0.12504145556E+03  0.13665184878E+03  0.00000000000E+00 0. -1.
       -4    1    6    6    0  502  0.36462230068E+02  0.60240932082E+01 -0.12813204802E+03  0.13335518606E+03  0.00000000000E+00 0.  1.
</event>
<event>
12   0  0.1544783E-01  0.1956608E+03  0.7957747E-01  0.1159572E+00
       21   -1    0    0  504  503  0.00000000000E+00  0.00000000000E+00  0.43105072084E+03  0.43105072084E+03  0.00000000000E+00 0.  1.
       21   -1    0    0  501  504  0.00000000000E+00  0.00000000000E+00 -0.10133940143E+03  0.10133940143E+03  0.00000000000E+00 0. -1.
        6    2    1    2  501    0 -0.77689535519E+01 -0.90669816648E+02  0.64214790729E+02  0.20592880853E+03  0.17321016871E+03 0.  0.
       24    2    3    3    0    0  0.49292403344E+02 -0.97858297167E+02  0.61348941275E+02  0.14815359070E+03  0.78611745234E+02 0.  0.
       -6    2    1    2    0  503  0.77689535519E+01  0.90669816648E+02  0.26549652868E+03  0.32646131374E+03  0.16675494095E+03 0.  0.
      -24    2    5    5    0    0  0.16909974708E+02  0.12688579316E+03  0.19425915406E+03  0.24588831102E+03  0.79614639422E+02 0.  0.
        5    1    3    3  501    0 -0.57061356896E+02  0.71884805192E+01  0.28658494547E+01  0.57775217836E+02  0.47000000000E+01 0. -1.
      -13    1    4    4    0    0  0.14944449887E+02 -0.54223454831E+02  0.72250041655E+02  0.91561936171E+02  0.00000000000E+00 0.  1.
       14    1    4    4    0    0  0.34347953457E+02 -0.43634842336E+02 -0.10901100381E+02  0.56591654525E+02  0.00000000000E+00 0. -1.
       -5    1    5    5    0  503 -0.91410211564E+01 -0.36215976514E+02  0.71237374628E+02  0.80573002716E+02  0.47000000000E+01 0.  1.
        3    1    6    6  502    0 -0.26421954547E+02  0.69429016085E+02  0.12837582351E+03  0.14832012681E+03  0.00000000000E+00 0. -1.
       -4    1    6    6    0  502  0.43331929255E+02  0.57456777077E+02  0.65883330547E+02  0.97568184205E+02  0.00000000000E+00 0.  1.
</event>
<event>
12   0  0.1544783E-01  0.1828043E+03  0.7957747E-01  0.1170831E+00
       21   -1    0    0  504  503  0.00000000000E+00  0.00000000000E+00  0.48704747253E+03  0.48704747253E+03  0.00000000000E+00 0.  1.
       21   -1    0    0  501  504  0.00000000000E+00  0.00000000000E+00 -0.10780557060E+03  0.10780557060E+03  0.00000000000E+00 0.  1.
        6    2    1    2  501    0  0.31710123310E+02 -0.49457535316E+02  0.10087858040E+02  0.18291602280E+03  0.17293041028E+03 0.  0.
       24    2    3    3    0    0 -0.27015378745E+02  0.33827433345E+02  0.88393789850E+01  0.80892891620E+02  0.67759865395E+02 0.  0.
       -6    2    1    2    0  503 -0.31710123310E+02  0.49457535316E+02  0.36915404389E+03  0.41193702033E+03  0.17310638602E+03 0.  0.
      -24    2    5    5    0    0 -0.25386600995E+01  0.97262854560E+02  0.26347700044E+03  0.29224554058E+03  0.80751585466E+02 0.  0.
        5    1    3    3  501    0  0.58725502055E+02 -0.83284968661E+02  0.12484790551E+01  0.10202313118E+03  0.47000000000E+01 0. -1.
        4    1    4    4  502    0 -0.42949188963E+02  0.20214619328E+02  0.25714678850E+02  0.53986186896E+02  0.00000000000E+00 0. -1.
       -3    1    4    4    0  502  0.15933810219E+02  0.13612814017E+02 -0.16875299865E+02  0.26906704724E+02  0.00000000000E+00 0.  1.
       -5    1    5    5    0  503 -0.29171463211E+02 -0.47805319244E+02  0.10567704345E+03  0.11969147976E+03  0.47000000000E+01 0.  1.
       11    1    6    6    0    0 -0.15958467023E+02  0.91633568035E+02  0.14105255104E+03  0.16895918328E+03  0.00000000000E+00 0. -1.
      -12    1    6    6    0    0  0.13419806923E+02  0.56292865251E+01  0.12242444940E+03  0.12328635730E+03  0.00000000000E+00 0.  1.
</event>
<event>
12   0  0.1544783E-01  0.1811293E+03  0.7957747E-01  0.1172373E+00
        1   -1    0    0  502    0  0.00000000000E+00  0.00000000000E+00  0.32842448029E+03  0.32842448029E+03  0.00000000000E+00 0.  1.
       -1   -1    0    0    0  501  0.00000000000E+00  0.00000000000E+00 -0.19429798479E+03  0.19429798479E+03  0.00000000000E+00 0. -1.
        6    2    1    2  502    0  0.49352273042E+02  0.30812435197E+02  0.24957651482E+03  0.30945889440E+03  0.17346849154E+03 0.  0.
       24    2    3    3    0    0  0.94778744988E+02 -0.37745013616E+01  0.13522088215E+03  0.18155611391E+03  0.75370273761E+02 0.  0.
       -6    2    1    2    0  501 -0.49352273042E+02 -0.30812435197E+02 -0.11545001932E+03  0.21326357068E+03  0.16961011350E+03 0.  0.
      -24    2    5    5    0    0 -0.94824010453E+02 -0.19167221000E+02 -0.56076771896E+02  0.13743110780E+03  0.79898246073E+02 0.  0.
        5    1    3    3  502    0 -0.45426471946E+02  0.34586936559E+02  0.11435563267E+03  0.12790278049E+03  0.47000000000E+01 0. -1.
        4    1    4    4  503    0  0.75281833621E+02 -0.20979659010E+02  0.50772872594E+02  0.93195413819E+02  0.00000000000E+00 0. -1.
       -3    1    4    4    0  503  0.19496911367E+02  0.17205157648E+02  0.84448009559E+02  0.88360700093E+02  0.00000000000E+00 0.  1.
       -5    1    5    5    0  501  0.45471737411E+02 -0.11645214197E+02 -0.59373247424E+02  0.75832462880E+02  0.47000000000E+01 0.  1.
       11    1    6    6    0    0 -0.10611149907E+03 -0.15884046555E+02 -0.62362396027E+02  0.12410085257E+03  0.00000000000E+00 0. -1.
      -12    1    6    6    0    0  0.11287488619E+02 -0.32831744447E+01  0.62856241311E+01  0.13330255230E+02  0.00000000000E+00 0.  1.
</event>
<event>
12   0  0.1544783E-01  0.1932501E+03  0.7957747E-01  0.1161610E+00
       21   -1    0    0  501  503  0.00000000000E+00  0.00000000000E+00  0.86550080312E+02  0.86550080312E+02  0.00000000000E+00 0. -1.
       21   -1    0    0  503  504  0.00000000000E+00  0.00000000000E+00 -0.52520938120E+03  0.52520938120E+03  0.00000000000E+00 0.  1.
        6    2    1    2  501    0  0.78757745560E+02  0.41946173452E+01 -0.83219140136E+02  0.20718150952E+03  0.17256411939E+03 0.  0.
       24    2    3    3    0    0 -0.77735505583E+01 -0.17906024415E+02 -0.81660366433E+02  0.11773530586E+03  0.82535646850E+02 0.  0.
       -6    2    1    2    0  504 -0.78757745560E+02 -0.41946173452E+01 -0.35544016075E+03  0.40457795199E+03  0.17642345100E+03 0.  0.
      -24    2    5    5    0    0 -0.68810861424E+02 -0.64525467791E+02 -0.18001329759E+03  0.21874085575E+03  0.80896872760E+02 0.  0.
        5    1    3    3  501    0  0.86531296118E+02  0.22100641760E+02 -0.15587737029E+01  0.89446203662E+02  0.47000000000E+01 0. -1.
        2    1    4    4  502    0 -0.28855372125E+02  0.22256289022E+02 -0.21226590376E+02  0.42172776059E+02  0.00000000000E+00 0. -1.
       -1    1    4    4    0  502  0.21081821566E+02 -0.40162313437E+02 -0.60433776057E+02  0.75562529799E+02  0.00000000000E+00 0.  1.
       -5    1    5    5    0  504 -0.99468841359E+01  0.60330850446E+02 -0.17542686317E+03  0.18583709624E+03  0.47000000000E+01 0.  1.
       11    1    6    6    0    0 -0.57045967552E+02 -0.76992263715E+01 -0.49545719020E+02  0.75949317139E+02  0.00000000000E+00 0. -1.
      -12    1    6    6    0    0 -0.11764893872E+02 -0.56826241419E+02 -0.13046757857E+03  0.14279153861E+03  0.00000000000E+00 0.  1.
</event>
<event>
12   0  0.1544783E-01  0.1796007E+03  0.7957747E-01  0.1173796E+00
       21   -1    0    0  501  503  0.00000000000E+00  0.00000000000E+00  0.12244009791E+04  0.12244009791E+04  0.00000000000E+00 0.  1.
       21   -1    0    0  503  504  0.00000000000E+00  0.00000000000E+00 -0.30302433233E+02  0.30302433233E+02  0.00000000000E+00 0.  1.
        6    2    1    2  501    0  0.17991021176E+02  0.40009488141E+02  0.83376573253E+03  0.85289021534E+03  0.17416080702E+03 0.  0.
       24    2    3    3    0    0  0.59098943666E+02  0.65943953390E+02  0.47032395534E+03  0.48618260268E+03  0.85601460555E+02 0.  0.
       -6    2    1    2    0  504 -0.17991021176E+02 -0.40009488141E+02  0.36033281333E+03  0.40181319699E+03  0.17230691490E+03 0.  0.
      -24    2    5    5    0    0  0.46909316289E+02 -0.68619493723E+01  0.27418932705E+03  0.28888134427E+03  0.77621348183E+02 0.  0.
        5    1    3    3  501    0 -0.41107922490E+02 -0.25934465249E+02  0.36344177719E+03  0.36670761267E+03  0.47000000000E+01 0. -1.
        2    1    4    4  502    0  0.40368377203E+02  0.86431713590E+02  0.36189824786E+03  0.37425978784E+03  0.00000000000E+00 0. -1.
       -1    1    4    4    0  502  0.18730566463E+02 -0.20487760201E+02  0.10842570748E+03  0.11192281483E+03  0.00000000000E+00 0.  1.
       -5    1    5    5    0  504 -0.64900337466E+02 -0.33147538769E+02  0.86143486286E+02  0.11293185272E+03  0.47000000000E+01 0.  1.
       11    1    6    6    0    0  0.22188545599E+02 -0.89821349987E+01  0.14452640960E+02  0.27962280588E+02  0.00000000000E+00 0. -1.
      -12    1    6    6    0    0  0.24720770690E+02  0.21201856264E+01  0.25973668609E+03  0.26091906368E+03  0.00000000000E+00 0.  1.
</event>
<event>
12   0  0.1544783E-01  0.2072712E+03  0.7957747E-01  0.1150191E+00
       21   -1    0    0  504  503  0.00000000000E+00  0.00000000000E+00  0.98126477221E+03  0.98126477221E+03  0.00000000000E+00 0. -1.
       21   -1    0    0  501  504  0.00000000000E+00  0.00000000000E+00 -0.55299327759E+02  0.55299327759E+02  0.00000000000E+00 0.  1.
        6    2    1    2  501    0 -0.80373601699E+02  0.80031657692E+02  0.22482985667E+03  0.30579376619E+03  0.17348308536E+03 0.  0.
       24    2    3    3    0    0 -0.10037301499E+03  0.31791813265E+02  0.86779496533E+02  0.15812165963E+03  0.79914433592E+02 0.  0.
       -6    2    1    2    0  503  0.80373601699E+02 -0.80031657692E+02  0.70113558778E+03  0.73077033378E+03  0.17195693122E+03 0.  0.
      -24    2    5    5    0    0  0.26764662453E+02 -0.10714462276E+03  0.57477462768E+03  0.59077671435E+03  0.80342617935E+02 0.  0.
        5    1    3    3  501    0  0.19999413292E+02  0.48239844427E+02  0.13805036013E+03  0.14767210656E+03  0.47000000000E+01 0. -1.
        4    1    4    4  502    0 -0.45331510319E+02 -0.25479853060E+02  0.26229798074E+02  0.58242347539E+02  0.00000000000E+00 0. -1.
       -3    1    4    4    0  502 -0.55041504672E+02  0.57271666325E+02  0.60549698459E+02  0.99879312091E+02  0.00000000000E+00 0.  1.
       -5    1    5    5    0  503  0.53608939247E+02  0.27112965065E+02  0.12636096010E+03  0.13999361943E+03  0.47000000000E+01 0.  1.
       11    1    6    6    0    0 -0.26894146286E+02 -0.37083370583E+02  0.25332214587E+03  0.25743073061E+03  0.00000000000E+00 0. -1.
      -12    1    6    6    0    0  0.53658808739E+02 -0.70061252175E+02  0.32145248181E+03  0.33334598374E+03  0.00000000000E+00 0.  1.
</event>
<event>
12   0  0.1544783E-01  0.2065946E+03  0.7957747E-01  0.1150719E+00
       -2   -1    0    0    0  501  0.00000000000E+00  0.00000000000E+00  0.17556170615E+03  0.17556170615E+03  0.00000000000E+00 0.  1.
        2   -1    0    0  502    0  0.00000000000E+00  0.00000000000E+00 -0.60596166671E+03  0.60596166671E+03  0.00000000000E+00 0. -1.
        6    2    1    2  502    0  0.79776639337E+02  0.79075771769E+02  0.87264211742E+02  0.22408136502E+03  0.17314769890E+03 0.  0.
       24    2    3    3    0    0  0.11737794851E+03  0.87784594187E+02  0.66880060965E+02  0.18018027571E+03  0.80673858392E+02 0.  0.
       -6    2    1    2    0  501 -0.79776639337E+02 -0.79075771769E+02 -0.51766417231E+03  0.55744200784E+03  0.17363210231E+03 0.  0.
      -24    2    5    5    0    0 -0.93535052317E+02  0.10245970224E+01 -0.27283504417E+03  0.29943279291E+03  0.80443646917E+02 0.  0.
        5    1    3    3  502    0 -0.37601309173E+02 -0.87088224178E+01  0.20384150777E+02  0.43901089307E+02  0.47000000000E+01 0. -1.
        4    1    4    4  503    0  0.78605552360E+02  0.86535570603E+01  0.28398753172E+02  0.84025032540E+02  0.00000000000E+00 0. -1.
       -3    1    4    4    0  503  0.38772396150E+02  0.79131037126E+02  0.38481307793E+02  0.96155243171E+02  0.00000000000E+00 0.  1.
       -5    1    5    5    0  501  0.13758412981E+02 -0.80100368791E+02 -0.24482912814E+03  0.25800921494E+03  0.47000000000E+01 0.  1.
       13    1    6    6    0    0 -0.97456774121E+02 -0.22088994472E+02 -0.22053381337E+03  0.24211755273E+03  0.00000000000E+00 0. -1.
      -14    1    6    6    0    0  0.39217218031E+01  0.23113591494E+02 -0.52301230796E+02  0.57315240176E+02  0.00000000000E+00 0.  1.
</event>
<event>
12   0  0.1544783E-01  0.2700398E+03  0.7957747E-01  0.1109016E+00
       -1   -1    0    0    0  501  0.00000000000E+00  0.00000000000E+00  0.15943688693E+03  0.15943688693E+03  0.00000000000E+00 0.  1.
        1   -1    0    0  502    0  0.00000000000E+00  0.00000000000E+00 -0.77368941270E+03  0.77368941270E+03  0.00000000000E+00 0. -1.
        6    2    1    2  502    0 -0.18576748522E+03 -0.97232011587E+02 -0.60668391888E+03  0.66482692512E+03  0.17310644208E+03 0.  0.
       24    2    3    3    0    0 -0.61331121248E+02 -0.49817300680E+01 -0.13614734906E+03  0.16942680737E+03  0.79893794085E+02 0.  0.
       -6    2    1    2    0  501  0.18576748522E+03  0.97232011587E+02 -0.75686068863E+01  0.26829937452E+03  0.16722334739E+03 0.  0.
      -24    2    5    5    0    0  0.15928152301E+03  0.80429409050E+02  0.50294616703E+02  0.20231394968E+03  0.81005508171E+02 0.  0.
        5    1    3    3  502    0 -0.12443636398E+03 -0.92250281519E+02 -0.47053656983E+03  0.49540011775E+03  0.47000000000E+01 0. -1.
        4    1    4    4  503    0  0.96469173308E+01 -0.25223831952E+02 -0.38303753976E+02  0.46866643585E+02  0.00000000000E+00 0. -1.
       -3    1    4    4    0  503 -0.70978038579E+02  0.20242101884E+02 -0.97843595080E+02  0.12256016379E+03  0.00000000000E+00 0.  1.
       -5    1    5    5    0  501  0.26485962213E+02  0.16802602536E+02 -0.57863223590E+02  0.65985424834E+02  0.47000000000E+01 0.  1.
       13    1    6    6    0    0  0.26098697701E+02 -0.13073011834E+02 -0.66000455207E+01  0.29926681422E+02  0.00000000000E+00 0. -1.
      -14    1    6    6    0    0  0.13318282531E+03  0.93502420884E+02  0.56894662224E+02  0.17238726826E+03  0.00000000000E+00 0.  1.
</event>
<event>
12   0  0.1544783E-01  0.1760419E+03  0.7957747E-01  0.1177171E+00
       21   -1    0    0  504  503  0.00000000000E+00  0.00000000000E+00  0.27404853399E+03  0.27404853399E+03  0.00000000000E+00 0. -1.
       21   -1    0    0  501  504  0.00000000000E+00  0.00000000000E+00 -0.19004740908E+03  0.19004740908E+03  0.00000000000E+00 0. -1.
        6    2    1    2  501    0  0.15958825365E+02  0.34684342938E+02 -0.10581624707E+03  0.20521107770E+03  0.17162989399E+03 0.  0.
       24    2    3    3    0    0  0.20739554938E+02 -0.22278910722E+02 -0.81053787618E+01  0.91909835740E+02  0.86343741747E+02 0.  0.
       -6    2    1    2    0  503 -0.15958825365E+02 -0.34684342938E+02  0.18981737198E+03  0.25888486538E+03  0.17185182880E+03 0.  0.
      -24    2    5    5    0    0  0.22601960423E+02  0.38313378718E+02  0.99206845675E+02  0.13621474251E+03  0.82059089949E+02 0.  0.
        5    1    3    3  501    0 -0.47807295726E+01  0.56963253660E+02 -0.97710868310E+02  0.11330124196E+03  0.47000000000E+01 0. -1.
        4    1    4    4  502    0  0.40984562368E+02 -0.44362160067E+02  0.16014945964E+01  0.60417715807E+02  0.00000000000E+00 0. -1.
       -3    1    4    4    0  502 -0.20245007431E+02  0.22083249345E+02 -0.97068733582E+01  0.31492119933E+02  0.00000000000E+00 0.  1.
       -5    1    5    5    0  503 -0.38560785788E+02 -0.72997721656E+02  0.90610526308E+02  0.12267012287E+03  0.47000000000E+01 0.  1.
       11    1    6    6    0    0 -0.49857324740E+01  0.54175329557E+02  0.85993095171E+02  0.10175773326E+03  0.00000000000E+00 0. -1.
      -12    1    6    6    0    0  0.27587692897E+02 -0.15861950839E+02  0.13213750504E+02  0.34457009246E+02  0.00000000000E+00 0.  1.
</event>
<event>
12   0  0.1544783E-01  0.1804296E+03  0.7957747E-01  0.1173023E+00
       21   -1    0    0  504  503  0.00000000000E+00  0.00000000000E+00  0.13086315647E+03  0.13086315647E+03  0.00000000000E+00 0. -1.
       21   -1    0    0  501  504  0.00000000000E+00  0.00000000000E+00 -0.27464526593E+03  0.27464526593E+03  0.00000000000E+00 0. -1.
        6    2    1    2  501    0  0.35889405733E+02  0.38115253331E+02 -0.13427660711E+03  0.22482865121E+03  0.17255982500E+03 0.  0.
       24    2    3    3    0    0  0.78716812273E+02  0.64829147164E+02 -0.91992165519E+02  0.15881438854E+03  0.79751467908E+02 0.  0.
       -6    2    1    2    0  503 -0.35889405733E+02 -0.38115253331E+02 -0.95055023524E+01  0.18067977119E+03  0.17266731932E+03 0.  0.
      -24    2    5    5    0    0  0.41569508058E+02 -0.24938973244E+02 -0.30172749150E+02  0.99299658309E+02  0.81240697697E+02 0.  0.
        5    1    3    3  501    0 -0.42827406540E+02 -0.26713893833E+02 -0.42284441593E+02  0.66014262667E+02  0.47000000000E+01 0. -1.
      -13    1    4    4    0    0  0.49949617276E+02  0.26870849794E+02 -0.17156073189E+01  0.56744604529E+02  0.00000000000E+00 0.  1.
       14    1    4    4    0    0  0.28767194996E+02  0.37958297370E+02 -0.90276558200E+02  0.10206978401E+03  0.00000000000E+00 0. -1.
       -5    1    5    5    0  503 -0.77458913790E+02 -0.13176280087E+02  0.20667246798E+02  0.81380112882E+02  0.47000000000E+01 0.  1.
        1    1    6    6  502    0  0.25000752527E+01 -0.32878827815E+02 -0.45836759903E+02  0.56464823148E+02  0.00000000000E+00 0. -1.
       -2    1    6    6    0  502  0.39069432805E+02  0.79398545712E+01  0.15664010753E+02  0.42834835160E+02  0.00000000000E+00 0.  1.
</event>
<event>
12   0  0.1544783E-01  0.1887290E+03  0.7957747E-01  0.1165520E+00
       21   -1    0    0  501  503  0.00000000000E+00  0.00000000000E+00  0.36138756035E+03  0.36138756035E+03  0.00000000000E+00 0. -1.
       21   -1    0    0  503  504  0.00000000000E+00  0.00000000000E+00 -0.10704436642E+03  0.10704436642E+03  0.00000000000E+00 0. -1.
        6    2    1    2  501    0 -0.52282660193E+02 -0.54886992962E+02  0.58480080006E+02  0.19758174472E+03  0.17283682344E+03 0.  0.
       24    2    3    3    0    0 -0.87729875069E+02 -0.34860358855E+02 -0.68004282321E+01  0.12050252656E+03  0.74584431919E+02 0.  0.
       -6    2    1    2    0  504  0.52282660193E+02  0.54886992962E+02  0.19586311393E+03  0.27085018205E+03  0.17103041592E+03 0.  0.
      -24    2    5    5    0    0  0.17061535562E+02  0.74168977297E+02  0.20123614644E+03  0.23006682738E+03  0.81502302036E+02 0.  0.
        5    1    3    3  501    0  0.35447214876E+02 -0.20026634107E+02  0.65280508239E+02  0.77079218159E+02  0.47000000000E+01 0. -1.
      -11    1    4    4    0    0 -0.36975276536E+02 -0.97115624330E+01 -0.39604688165E+02  0.55045588783E+02  0.00000000000E+00 0.  1.
       12    1    4    4    0    0 -0.50754598533E+02 -0.25148796422E+02  0.32804259933E+02  0.65456937779E+02  0.00000000000E+00 0. -1.
       -5    1    5    5    0  504  0.35221124631E+02 -0.19281984335E+02 -0.53730325133E+01  0.40783354675E+02  0.47000000000E+01 0.  1.
        1    1    6    6  502    0  0.35012916479E+02  0.41684282543E+02  0.48575632812E+02  0.72959412242E+02  0.00000000000E+00 0. -1.
       -2    1    6    6    0  502 -0.17951380917E+02  0.32484694754E+02  0.15266051363E+03  0.15710741514E+03  0.00000000000E+00 0.  1.
</event>
<event>
12   0  0.1544783E-01  0.1846251E+03  0.7957747E-01  0.1169176E+00
       21   -1    0    0  504  503  0.00000000000E+00  0.00000000000E+00  0.47774580092E+03  0.47774580092E+03  0.00000000000E+00 0.  1.
       21   -1    0    0  501  504  0.00000000000E+00  0.00000000000E+00 -0.98698950674E+02  0.98698950674E+02  0.00000000000E+00 0.  1.
        6    2    1    2  501    0 -0.59138556100E+02  0.23286636435E+02  0.35667703412E+02  0.18803885556E+03  0.17334009888E+03 0.  0.
       24    2    3    3    0    0 -0.44706928434E+02  0.80753244718E+01 -0.36185523664E+02  0.11304130807E+03  0.96979507589E+02 0.  0.
       -6    2    1    2    0  503  0.59138556100E+02 -0.23286636435E+02  0.34337914683E+03  0.38840589603E+03  0.17003018949E+03 0.  0.
      -24    2    5    5    0    0 -0.33408231239E+02 -0.79725139808E+01  0.17003570477E+03  0.19125248089E+03  0.80533841693E+02 0.  0.
        5    1    3    3  501    0 -0.14431627666E+02  0.15211311963E+02  0.71853227076E+02  0.74997547493E+02  0.47000000000E+01 0. -1.
        4    1    4    4  502    0  0.46253857370E+01  0.34349738162E+02 -0.44636612136E+02  0.56513059093E+02  0.00000000000E+00 0. -1.
       -3    1    4    4    0  502 -0.49332314171E+02 -0.26274413690E+02  0.84510884720E+01  0.56528248978E+02  0.00000000000E+00 0.  1.
       -5    1    5    5    0  503  0.92546787339E+02 -0.15314122454E+02  0.17334344207E+03  0.19715341514E+03  0.47000000000E+01 0.  1.
       11    1    6    6    0    0 -0.49312371049E+00  0.33979572109E+02  0.73270656400E+02  0.80767837541E+02  0.00000000000E+00 0. -1.
      -12    1    6    6    0    0 -0.32915107529E+02 -0.41952086090E+02  0.96765048365E+02  0.11048464335E+03  0.00000000000E+00 0.  1.
</event>
<event>
12   0  0.1544783E-01  0.1821973E+03  0.7957747E-01  0.1171388E+00
       21   -1    0    0  501  503  0.00000000000E+00  0.00000000000E+00  0.41504684322E+03  0.41504684322E+03  0.00000000000E+00 0. -1.
       21   -1    0    0  503  504  0.00000000000E+00  0.00000000000E+00 -0.14129858809E+03  0.14129858809E+03  0.00000000000E+00 0. -1.
        6    2    1    2  501    0  0.34714237533E+02  0.38924503967E+02  0.32036251921E+03  0.36827958338E+03  0.17400434629E+03 0.  0.
       24    2    3    3    0    0 -0.44645980151E+01  0.45312379469E+02  0.31452845056E+03  0.32788264705E+03  0.80658165450E+02 0.  0.
       -6    2    1    2    0  504 -0.34714237533E+02 -0.38924503967E+02 -0.46614264068E+02  0.18806584793E+03  0.17457284510E+03 0.  0.
      -24    2    5    5    0    0 -0.67681031550E+02 -0.76463678061E+02 -0.45101758442E+02  0.13786249373E+03  0.80897975675E+02 0.  0.
        5    1    3    3  501    0  0.39178835548E+02 -0.63878755021E+01  0.58340686452E+01  0.40396936335E+02  0.47000000000E+01 0. -1.
      -11    1    4    4    0    0 -0.20140479167E+02 -0.73723661820E+00  0.16890741556E+02  0.26295999111E+02  0.00000000000E+00 0.  1.
       12    1    4    4    0    0  0.15675881152E+02  0.46049616087E+02  0.29763770901E+03  0.30158664794E+03  0.00000000000E+00 0. -1.
       -5    1    5    5    0  504  0.32966794018E+02  0.37539174094E+02 -0.15125056256E+01  0.50203354198E+02  0.47000000000E+01 0.  1.
        1    1    6    6  502    0 -0.72188542888E+02 -0.33062210536E+02 -0.66062854371E+01  0.79673951183E+02  0.00000000000E+00 0. -1.
       -2    1    6    6    0  502  0.45075113375E+01 -0.43401467525E+02 -0.38495473005E+02  0.58188542546E+02  0.00000000000E+00 0.  1.
</event>
<event>
12   0  0.1544783E-01  0.1895510E+03  0.7957747E-01  0.1164800E+00
       21   -1    0    0  504  503  0.00000000000E+00  0.00000000000E+00  0.86506961787E+02  0.86506961787E+02  0.00000000000E+00 0. -1.
       21   -1    0    0  501  504  0.00000000000E+00  0.00000000000E+00 -0.61495719887E+03  0.61495719887E+03  0.00000000000E+00 0. -1.
        6    2    1    2  501    0  0.83033136602E+01 -0.66880745889E+02 -0.46599443996E+03  0.50188882783E+03  0.17378031603E+03 0.  0.
       24    2    3    3    0    0  0.29053731615E+02  0.18951290631E+02 -0.14365931025E+03  0.16764379169E+03  0.79140209339E+02 0.  0.
       -6    2    1    2    0  503 -0.83033136602E+01  0.66880745889E+02 -0.62455797116E+02  0.19957533282E+03  0.17716548108E+03 0.  0.
      -24    2    5    5    0    0 -0.48263526329E+02  0.12582634843E+02  0.13437662616E+02  0.97953432176E+02  0.83226278453E+02 0.  0.
        5    1    3    3  501    0 -0.20750417955E+02 -0.85832036520E+02 -0.32233512971E+03  0.33424503614E+03  0.47000000000E+01 0. -1.
      -13    1    4    4    0    0 -0.19503538282E+02  0.30100959644E+02 -0.70986952816E+02  0.79533661095E+02  0.00000000000E+00 0.  1.
       14    1    4    4    0    0  0.48557269897E+02 -0.11149669013E+02 -0.72672357432E+02  0.88110130596E+02  0.00000000000E+00 0. -1.
       -5    1    5    5    0  503  0.39960212669E+02  0.54298111046E+02 -0.75893459732E+02  0.10162190064E+03  0.47000000000E+01 0.  1.
        3    1    6    6  502    0 -0.56957903113E+02  0.35526554680E+02 -0.49210168483E+01  0.67309399204E+02  0.00000000000E+00 0. -1.
       -4    1    6    6    0  502  0.86943767832E+01 -0.22943919837E+02  0.18358679465E+02  0.30644032972E+02  0.00000000000E+00 0.  1.
</event>
<event>
12   0  0.1544783E-01  0.1937755E+03  0.7957747E-01  0.1161163E+00
       21   -1    0    0  501  503  0.00000000000E+00  0.00000000000E+00  0.68516098441E+02  0.68516098441E+02  0.00000000000E+00 0. -1.
       21   -1    0    0  503  504  0.00000000000E+00  0.00000000000E+00 -0.91819530994E+03  0.91819530994E+03  0.00000000000E+00 0.  1.
        6    2    1    2  501    0  0.70736133997E+02 -0.50465734910E+02 -0.11158410468E+03  0.22360372739E+03  0.17319706532E+03 0.  0.
       24    2    3    3    0    0 -0.10356729770E+02 -0.13888484014E+02 -0.81665043872E+00  0.81457792680E+02  0.79589906588E+02 0.  0.
       -6    2    1    2    0  504 -0.70736133997E+02  0.50465734910E+02 -0.73809510682E+03  0.76310768098E+03  0.17320090939E+03 0.  0.
      -24    2    5    5    0    0  0.41707299908E+01 -0.26219077935E+02 -0.27916293618E+03  0.29179841305E+03  0.80681682466E+02 0.  0.
        5    1    3    3  501    0  0.81092863767E+02 -0.36577250896E+02 -0.11076745424E+03  0.14214593471E+03  0.47000000000E+01 0. -1.
      -13    1    4    4    0    0 -0.72816481589E+01 -0.38733229984E+02 -0.24982386019E+02  0.46662673692E+02  0.00000000000E+00 0.  1.
       14    1    4    4    0    0 -0.30750816114E+01  0.24844745970E+02  0.24165735580E+02  0.34795118988E+02  0.00000000000E+00 0. -1.
       -5    1    5    5    0  504 -0.74906863988E+02  0.76684812845E+02 -0.45893217064E+03  0.47130926793E+03  0.47000000000E+01 0.  1.
        3    1    6    6  502    0 -0.34002858230E+02 -0.24208390106E+02 -0.95880543323E+02  0.10457207614E+03  0.00000000000E+00 0. -1.
       -4    1    6    6    0  502  0.38173588221E+02 -0.20106878295E+01 -0.18328239286E+03  0.18722633691E+03  0.00000000000E+00 0.  1.
</event>
<event>
12   0  0.1544783E-01  0.2063106E+03  0.7957747E-01  0.1150941E+00
       21   -1    0    0  504  503  0.00000000000E+00  0.00000000000E+00  0.93984816986E+02  0.93984816986E+02  0.00000000000E+00 0.  1.
       21   -1    0    0  501  504  0.00000000000E+00  0.00000000000E+00 -0.44900160771E+03  0.44900160771E+03  0.00000000000E+00 0.  1.
        6    2    1    2  501    0 -0.73103398776E+02  0.85154540484E+02 -0.18155304589E+03  0.27481916250E+03  0.17311458901E+03 0.  0.
       24    2    3    3    0    0 -0.11854458812E+03  0.56912395308E+02 -0.12741819938E+03  0.19856175591E+03  0.76808419247E+02 0.  0.
       -6    2    1    2    0  503  0.73103398776E+02 -0.85154540484E+02 -0.17346374484E+03  0.26816726219E+03  0.17096375950E+03 0.  0.
      -24    2    5    5    0    0  0.94950067341E+02 -0.50698255903E+02 -0.92545854640E+02  0.17742417745E+03  0.10643671873E+03 0.  0.
        5    1    3    3  501    0  0.45441189341E+02  0.28242145177E+02 -0.54134846512E+02  0.76257406590E+02  0.47000000000E+01 0. -1.
        4    1    4    4  502    0 -0.71633011210E+02  0.19802139503E+02 -0.22259579835E+02  0.77581582340E+02  0.00000000000E+00 0. -1.
       -3    1    4    4    0  502 -0.46911576907E+02  0.37110255804E+02 -0.10515861954E+03  0.12098017357E+03  0.00000000000E+00 0.  1.
       -5    1    5    5    0  503 -0.21846668565E+02 -0.34456284581E+02 -0.80917890196E+02  0.90743084740E+02  0.47000000000E+01 0.  1.
       11    1    6    6    0    0 -0.18672558055E+02  0.61214862393E+01  0.97604995758E+00  0.19674595081E+02  0.00000000000E+00 0. -1.
      -12    1    6    6    0    0  0.11362262540E+03 -0.56819742143E+02 -0.93521904598E+02  0.15774958237E+03  0.00000000000E+00 0.  1.
</event>
<event>
12   0  0.1544783E-01  0.2541209E+03  0.7957747E-01  0.1118210E+00
        1   -1    0    0  502    0  0.00000000000E+00  0.00000000000E+00  0.56666017756E+03  0.56666017756E+03  0.00000000000E+00 0.  1.
       -1   -1    0    0    0  501  0.00000000000E+00  0.00000000000E+00 -0.16494146954E+03  0.16494146954E+03  0.00000000000E+00 0. -1.
        6    2    1    2  502    0 -0.92989418593E+02  0.16341774027E+03 -0.29420969226E+01  0.25333747521E+03  0.16976109863E+03 0.  0.
       24    2    3    3    0    0 -0.23045884929E+02  0.22385267777E+02  0.27392080110E+02  0.92948858115E+02  0.82806709550E+02 0.  0.
       -6    2    1    2    0  501  0.92989418593E+02 -0.16341774027E+03  0.40466080495E+03  0.47826417189E+03  0.17214488448E+03 0.  0.
      -24    2    5    5    0    0  0.98527630279E+02 -0.62823172000E+02  0.16424018107E+03  0.21754573116E+03  0.81834364416E+02 0.  0.
        5    1    3    3  502    0 -0.69943533664E+02  0.14103247249E+03 -0.30334177032E+02  0.16038861710E+03  0.47000000000E+01 0. -1.
        2    1    4    4  503    0 -0.32923849290E+02 -0.20699616091E+02 -0.34601831337E+01  0.39043908945E+02  0.00000000000E+00 0. -1.
       -1    1    4    4    0  503  0.98779643606E+01  0.43084883868E+02  0.30852263243E+02  0.53904949170E+02  0.00000000000E+00 0.  1.
       -5    1    5    5    0  501 -0.55382116863E+01 -0.10059456827E+03  0.24042062388E+03  0.26071844074E+03  0.47000000000E+01 0.  1.
       13    1    6    6    0    0  0.28986622012E+01  0.17277135776E+02  0.15227123758E+02  0.23211354142E+02  0.00000000000E+00 0. -1.
      -14    1    6    6    0    0  0.95628968078E+02 -0.80100307776E+02  0.14901305731E+03  0.19433437701E+03  0.00000000000E+00 0.  1.
</event>
<event>
12   0  0.1544783E-01  0.1865059E+03  0.7957747E-01  0.1167488E+00
       -2   -1    0    0    0  501  0.00000000000E+00  0.00000000000E+00  0.19396715477E+03  0.19396715477E+03  0.00000000000E+00 0. -1.
        2   -1    0    0  502    0  0.00000000000E+00  0.00000000000E+00 -0.24098635275E+03  0.24098635275E+03  0.00000000000E+00 0.  1.
        6    2    1    2  502    0  0.44219486625E+02 -0.49448218523E+02 -0.13341834336E+03  0.22855328646E+03  0.17330799489E+03 0.  0.
       24    2    3    3    0    0  0.96295838780E+02 -0.48246426054E+02 -0.10090974679E+03  0.16697171771E+03  0.78077982324E+02 0.  0.
       -6    2    1    2    0  501 -0.44219486625E+02  0.49448218523E+02  0.86399145385E+02  0.20640022106E+03  0.17531614192E+03 0.  0.
      -24    2    5    5    0    0  0.44032465458E+02 -0.52226164028E+01  0.59073538303E+02  0.98947505693E+02  0.65839138958E+02 0.  0.
        5    1    3    3  502    0 -0.52076352155E+02 -0.12017924690E+01 -0.32508596574E+02  0.61581568753E+02  0.47000000000E+01 0. -1.
      -11    1    4    4    0    0  0.38585202469E+02 -0.62577863301E+02 -0.53545261591E+02  0.90949996502E+02  0.00000000000E+00 0.  1.
       12    1    4    4    0    0  0.57710636311E+02  0.14331437247E+02 -0.47364485196E+02  0.76021721204E+02  0.00000000000E+00 0. -1.
       -5    1    5    5    0  501 -0.88251952083E+02  0.54670834926E+02  0.27325607082E+02  0.10745271537E+03  0.47000000000E+01 0.  1.
        3    1    6    6  503    0  0.36735413683E+02  0.13910757526E+02  0.31668092982E+01  0.39408482266E+02  0.00000000000E+00 0. -1.
       -4    1    6    6    0  503  0.72970517750E+01 -0.19133373929E+02  0.55906729005E+02  0.59539023426E+02  0.00000000000E+00 0.  1.
</event>
<event>
12   0  0.1544783E-01  0.1837973E+03  0.7957747E-01  0.1169926E+00
       21   -1    0    0  501  503  0.00000000000E+00  0.00000000000E+00  0.18882450258E+03  0.18882450258E+03  0.00000000000E+00 0.  1.
       21   -1    0    0  503  504  0.00000000000E+00  0.00000000000E+00 -0.24493133956E+03  0.24493133956E+03  0.00000000000E+00 0.  1.
        6    2    1    2  501    0 -0.84425808713E+01 -0.48935631365E+02  0.87894452828E+02  0.20373236639E+03  0.17696177296E+03 0.  0.
       24    2    3    3    0    0  0.50514332757E+02 -0.55396069468E+02  0.93018812113E+02  0.14401633853E+03  0.80422534345E+02 0.  0.
       -6    2    1    2    0  504  0.84425808713E+01  0.48935631365E+02 -0.14400128981E+03  0.23002347575E+03  0.17236140734E+03 0.  0.
      -24    2    5    5    0    0  0.37328806448E+02 -0.20847060033E+02 -0.12126845792E+03  0.15101139002E+03  0.79185613124E+02 0.  0.
        5    1    3    3  501    0 -0.58956913628E+02  0.64604381032E+01 -0.51243592856E+01  0.59716027858E+02  0.47000000000E+01 0. -1.
      -11    1    4    4    0    0  0.10943498008E+02 -0.59929647800E+02  0.82978700554E+02  0.10294069934E+03  0.00000000000E+00 0.  1.
       12    1    4    4    0    0  0.39570834748E+02  0.45335783317E+01  0.10040111560E+02  0.41075639195E+02  0.00000000000E+00 0. -1.
       -5    1    5    5    0  504 -0.28886225576E+02  0.69782691397E+02 -0.22732831895E+02  0.79012085738E+02  0.47000000000E+01 0.  1.
        1    1    6    6  502    0 -0.24390606932E+02 -0.95686470818E+01 -0.46806867529E+02  0.53640875845E+02  0.00000000000E+00 0. -1.
       -2    1    6    6    0  502  0.61719413380E+02 -0.11278412951E+02 -0.74461590388E+02  0.97370514171E+02  0.00000000000E+00 0.  1.
</event>
<event>
12   0  0.1544783E-01  0.3875988E+03  0.7957747E-01  0.1057309E+00
        2   -1    0    0  502    0  0.00000000000E+00  0.00000000000E+00  0.96523575062E+03  0.96523575062E+03  0.00000000000E+00 0.  1.
       -2   -1    0    0    0  501  0.00000000000E+00  0.00000000000E+00 -0.16088921673E+03  0.16088921673E+03  0.00000000000E+00 0. -1.
        6    2    1    2  502    0  0.23365352564E+03 -0.25604393814E+03  0.30068373789E+03  0.49069536164E+03  0.17383543773E+03 0.  0.
       24    2    3    3    0    0  0.58995119676E+02 -0.61827449603E+02  0.58193226962E+02  0.13425554754E+03  0.85644863889E+02 0.  0.
       -6    2    1    2    0  501 -0.23365352564E+03  0.25604393814E+03  0.50366279601E+03  0.63542960571E+03  0.17303786704E+03 0.  0.
      -24    2    5    5    0    0 -0.92495435943E+02  0.10995863917E+03  0.33084809337E+03  0.36868341116E+03  0.76293438632E+02 0.  0.
        5    1    3    3  502    0  0.17465840596E+03 -0.19421648853E+03  0.24249051093E+03  0.35643981411E+03  0.47000000000E+01 0. -1.
      -11    1    4    4    0    0  0.55572960356E+02 -0.80519791647E+02  0.34183149282E+02  0.10363531476E+03  0.00000000000E+00 0.  1.
       12    1    4    4    0    0  0.34221593200E+01  0.18692342044E+02  0.24010077680E+02  0.30620232783E+02  0.00000000000E+00 0. -1.
       -5    1    5    5    0  501 -0.14115808969E+03  0.14608529896E+03  0.17281470264E+03  0.26674619455E+03  0.47000000000E+01 0.  1.
        1    1    6    6  503    0 -0.69415306051E+02  0.10947231268E+03  0.21907823717E+03  0.25455440667E+03  0.00000000000E+00 0. -1.
       -2    1    6    6    0  503 -0.23080129892E+02  0.48632649784E+00  0.11176985620E+03  0.11412900448E+03  0.00000000000E+00 0.  1.
</event>
<event>
12   0  0.1544783E-01  0.1934428E+03  0.7957747E-01  0.1161446E+00
       21   -1    0    0  501  503  0.00000000000E+00  0.00000000000E+00  0.25072193997E+03  0.25072193997E+03  0.00000000000E+00 0.  1.
       21   -1    0    0  503  504  0.00000000000E+00  0.00000000000E+00 -0.19716993862E+03  0.19716993862E+03  0.00000000000E+00 0.  1.
        6    2    1    2  501    0  0.71250125021E+02  0.46916438582E+02 -0.84316024585E+02  0.21034673159E+03  0.17279705716E+03 0.  0.
       24    2    3    3    0    0  0.84786029185E+02  0.89494302437E+02 -0.51672069970E+02  0.15481464208E+03  0.78100382039E+02 0.  0.
       -6    2    1    2    0  504 -0.71250125021E+02 -0.46916438582E+02  0.13786802594E+03  0.23754514700E+03  0.17361558618E+03 0.  0.
      -24    2    5    5    0    0 -0.20321763150E+02 -0.40227406564E+02  0.15733463798E+03  0.18241366619E+03  0.80556433696E+02 0.  0.
        5    1    3    3  501    0 -0.13535904163E+02 -0.42577863855E+02 -0.32643954614E+02  0.55532089505E+02  0.47000000000E+01 0. -1.
        2    1    4    4  502    0  0.33698961671E+02 -0.53126943894E+01  0.26061284183E+01  0.34214567727E+02  0.00000000000E+00 0. -1.
       -1    1    4    4    0  502  0.51087067513E+02  0.94806996826E+02 -0.54278198389E+02  0.12060007436E+03  0.00000000000E+00 0.  1.
       -5    1    5    5    0  504 -0.50928361871E+02 -0.66890320182E+01 -0.19466612036E+02  0.55131480811E+02  0.47000000000E+01 0.  1.
       13    1    6    6    0    0 -0.28644578595E+02 -0.59672718131E+02  0.14074287518E+03  0.15553103255E+03  0.00000000000E+00 0. -1.
      -14    1    6    6    0    0  0.83228154442E+01  0.19445311567E+02  0.16591762797E+02  0.26882633642E+02  0.00000000000E+00 0.  1.
</event>
<event>
12   0  0.1544783E-01  0.2624127E+03  0.7957747E-01  0.1113333E+00
       -2   -1    0    0    0  501  0.00000000000E+00  0.00000000000E+00  0.35436101552E+03  0.35436101552E+03  0.00000000000E+00 0. -1.
        2   -1    0    0  502    0  0.00000000000E+00  0.00000000000E+00 -0.22675821154E+03  0.22675821154E+03  0.00000000000E+00 0.  1.
        6    2    1    2  502    0  0.15721928385E+03  0.12252402135E+03  0.17371072500E+03  0.31477195855E+03  0.17080963347E+03 0.  0.
       24    2    3    3    0    0  0.12516975018E+03  0.75590366433E+02  0.43233172322E+02  0.17237665552E+03  0.80394243081E+02 0.  0.
       -6    2    1    2    0  501 -0.15721928385E+03 -0.12252402135E+03 -0.46107921024E+02  0.26634726851E+03  0.17054292140E+03 0.  0.
      -24    2    5    5    0    0 -0.10108059051E+03 -0.14194600820E+03 -0.50286140244E+00  0.19130942522E+03  0.78949909976E+02 0.  0.
        5    1    3    3  502    0  0.32049533671E+02  0.46933654918E+02  0.13047755268E+03  0.14239530303E+03  0.47000000000E+01 0. -1.
      -13    1    4    4    0    0  0.10019484640E+03  0.79241660000E+02  0.60950441001E+02  0.14153870207E+03  0.00000000000E+00 0.  1.
       14    1    4    4    0    0  0.24974903778E+02 -0.36512935667E+01 -0.17717268679E+02  0.30837953448E+02  0.00000000000E+00 0. -1.
       -5    1    5    5    0  501 -0.56138693344E+02  0.19421986852E+02 -0.45605059622E+02  0.75037843298E+02  0.47000000000E+01 0.  1.
        1    1    6    6  503    0 -0.36491582956E+02 -0.10944942857E+03 -0.18383630822E+02  0.11682795437E+03  0.00000000000E+00 0. -1.
       -2    1    6    6    0  503 -0.64589007550E+02 -0.32496579636E+02  0.17880769420E+02  0.74481470845E+02  0.00000000000E+00 0.  1.
</event>
<event>
12   0  0.1544783E-01  0.1798817E+03  0.7957747E-01  0.1173533E+00
       21   -1    0    0  504  503  0.00000000000E+00  0.00000000000E+00  0.54710721108E+03  0.54710721108E+03  0.00000000000E+00 0. -1.
       21   -1    0    0  501  504  0.00000000000E+00  0.00000000000E+00 -0.90361526394E+02  0.90361526394E+02  0.00000000000E+00 0. -1.
        6    2    1    2  501    0 -0.26799600345E+02  0.44588562856E+02  0.40935322786E+02  0.18441719457E+03  0.17212682094E+03 0.  0.
       24    2    3    3    0    0  0.42128658035E+02  0.59875983350E+02  0.16253535978E+02  0.10947661392E+03  0.79755842125E+02 0.  0.
       -6    2    1    2    0  503  0.26799600345E+02 -0.44588562856E+02  0.41581036190E+03  0.45305154291E+03  0.17219490395E+03 0.  0.
      -24    2    5    5    0    0  0.49656640692E+02  0.18171898315E+02  0.33344987453E+03  0.34690702039E+03  0.79747489731E+02 0.  0.
        5    1    3    3  501    0 -0.68928258380E+02 -0.15287420495E+02  0.24681786808E+02  0.74940580654E+02  0.47000000000E+01 0. -1.
      -13    1    4    4    0    0  0.68107051347E+01  0.52801976165E+02  0.39775603828E+02  0.66457001522E+02  0.00000000000E+00 0.  1.
       14    1    4    4    0    0  0.35317952900E+02  0.70740071853E+01 -0.23522067850E+02  0.43019612396E+02  0.00000000000E+00 0. -1.
       -5    1    5    5    0  503 -0.22857040347E+02 -0.62760461171E+02  0.82360487371E+02  0.10614452251E+03  0.47000000000E+01 0.  1.
        1    1    6    6  502    0 -0.58121029317E+01 -0.19803905737E+02  0.15219239791E+03  0.15358548500E+03  0.00000000000E+00 0. -1.
       -2    1    6    6    0  502  0.55468743624E+02  0.37975804052E+02  0.18125747663E+03  0.19332153539E+03  0.00000000000E+00 0.  1.
</event>
<event>
12   0  0.1544783E-01  0.1809672E+03  0.7957747E-01  0.1172523E+00
       21   -1    0    0  501  503  0.00000000000E+00  0.00000000000E+00  0.18017172580E+03  0.18017172580E+03  0.00000000000E+00 0. -1.
       21   -1    0    0  503  504  0.00000000000E+00  0.00000000000E+00 -0.19323013750E+03  0.19323013750E+03  0.00000000000E+00 0. -1.
        6    2    1    2  501    0  0.51425388410E+02  0.18799901580E+02 -0.52516907251E+02  0.18843344429E+03  0.17248516025E+03 0.  0.
       24    2    3    3    0    0  0.68193602653E+02 -0.40584159036E+02 -0.95522566666E+01  0.11309626314E+03  0.80012984700E+02 0.  0.
       -6    2    1    2    0  504 -0.51425388410E+02 -0.18799901580E+02  0.39458495556E+02  0.18496841901E+03  0.17221595829E+03 0.  0.
      -24    2    5    5    0    0 -0.23470755551E+02 -0.52519740846E+02  0.78679468436E+02  0.12598652542E+03  0.79830735243E+02 0.  0.
        5    1    3    3  501    0 -0.16768214243E+02  0.59384060616E+02 -0.42964650585E+02  0.75337181153E+02  0.47000000000E+01 0. -1.
      -11    1    4    4    0    0  0.29129749323E+02 -0.61474936155E+02 -0.10228893540E+02  0.68792007776E+02  0.00000000000E+00 0.  1.
       12    1    4    4    0    0  0.39063853330E+02  0.20890777119E+02  0.67663687297E+00  0.44304255360E+02  0.00000000000E+00 0. -1.
       -5    1    5    5    0  504 -0.27954632859E+02  0.33719839266E+02 -0.39220972880E+02  0.58981893595E+02  0.47000000000E+01 0.  1.
        3    1    6    6  502    0 -0.30960172309E+02  0.24860625186E+01  0.59739028264E+02  0.67331005296E+02  0.00000000000E+00 0. -1.
       -4    1    6    6    0  502  0.74894167580E+01 -0.55005803364E+02  0.18940440172E+02  0.58655520124E+02  0.00000000000E+00 0.  1.
</event>
<event>
12   0  0.1544783E-01  0.1906203E+03  0.7957747E-01  0.1163870E+00
       21   -1    0    0  504  503  0.00000000000E+00  0.00000000000E+00  0.18244218925E+03  0.18244218925E+03  0.00000000000E+00 0. -1.
       21   -1    0    0  501  504  0.00000000000E+00  0.00000000000E+00 -0.25584584743E+03  0.25584584743E+03  0.00000000000E+00 0.  1.
        6    2    1    2  501    0  0.80682138678E+02 -0.54125839919E+01  0.66937117409E+02  0.20203135201E+03  0.17261861413E+03 0.  0.
       24    2    3    3    0    0  0.65821140924E+02  0.28416019901E+02 -0.17763919880E+02  0.10950254886E+03  0.80841564665E+02 0.  0.
       -6    2    1    2    0  503 -0.80682138678E+02  0.54125839919E+01 -0.14034077559E+03  0.23625668467E+03  0.17199646564E+03 0.  0.
      -24    2    5    5    0    0  0.10345320339E+02  0.41577249290E+02 -0.82892771703E+01  0.71776991255E+02  0.56987112983E+02 0.  0.
        5    1    3    3  501    0  0.14860997753E+02 -0.33828603893E+02  0.84701037289E+02  0.92528803156E+02  0.47000000000E+01 0. -1.
      -11    1    4    4    0    0  0.52521795787E+00  0.13974020906E+02 -0.37298579995E+02  0.39833819598E+02  0.00000000000E+00 0.  1.
       12    1    4    4    0    0  0.65295922966E+02  0.14441998995E+02  0.19534660115E+02  0.69668729261E+02  0.00000000000E+00 0. -1.
       -5    1    5    5    0  503 -0.91027459017E+02 -0.36164665299E+02 -0.13205149842E+03  0.16447969342E+03  0.47000000000E+01 0.  1.
        1    1    6    6  502    0 -0.12281252502E+02  0.43378455044E+02 -0.15948710531E+02  0.47821343484E+02  0.00000000000E+00 0. -1.
       -2    1    6    6    0  502  0.22626572841E+02 -0.18012057540E+01  0.76594333607E+01  0.23955647771E+02  0.00000000000E+00 0.  1.
</event>
<event>
12   0  0.1544783E-01  0.1916700E+03  0.7957747E-01  0.1162963E+00
       21   -1    0    0  501  503  0.00000000000E+00  0.00000000000E+00  0.41770933158E+02  0.41770933158E+02  0.00000000000E+00 0. -1.
       21   -1    0    0  503  504  0.00000000000E+00  0.00000000000E+00 -0.10477164988E+04  0.10477164988E+04  0.00000000000E+00 0. -1.
        6    2    1    2  501    0 -0.75923453399E+02  0.29584500836E+02 -0.28407125709E+03  0.34260062798E+03  0.17331790941E+03 0.  0.
       24    2    3    3    0    0  0.51095195276E+01 -0.21692462307E+02 -0.19300580913E+03  0.21027271912E+03  0.80415818954E+02 0.  0.
       -6    2    1    2    0  504  0.75923453399E+02 -0.29584500836E+02 -0.72187430853E+03  0.74688680396E+03  0.17348708062E+03 0.  0.
      -24    2    5    5    0    0  0.30838445855E+02 -0.84502315923E+02 -0.46105175407E+03  0.47651831609E+03  0.80058319329E+02 0.  0.
        5    1    3    3  501    0 -0.81032972926E+02  0.51276963143E+02 -0.91065447959E+02  0.13232790886E+03  0.47000000000E+01 0. -1.
        4    1    4    4  502    0 -0.84548188738E-03  0.25141559085E+02 -0.23761216291E+02  0.34593256475E+02  0.00000000000E+00 0. -1.
       -3    1    4    4    0  502  0.51103650095E+01 -0.46834021393E+02 -0.16924459284E+03  0.17567946264E+03  0.00000000000E+00 0.  1.
       -5    1    5    5    0  504  0.45085007544E+02  0.54917815087E+02 -0.26082255446E+03  0.27036848787E+03  0.47000000000E+01 0.  1.
       11    1    6    6    0    0  0.54001936903E+02 -0.66725337869E+02 -0.27195857293E+03  0.28518405512E+03  0.00000000000E+00 0. -1.
      -12    1    6    6    0    0 -0.23163491048E+02 -0.17776978054E+02 -0.18909318114E+03  0.19133426096E+03  0.00000000000E+00 0.  1.
</event>
<event>
12   0  0.1544783E-01  0.1952714E+03  0.7957747E-01  0.1159899E+00
       21   -1    0    0  501  503  0.00000000000E+00  0.00000000000E+00  0.14704037042E+03  0.14704037042E+03  0.00000000000E+00 0. -1.
       21   -1    0    0  503  504  0.00000000000E+00  0.00000000000E+00 -0.32753769690E+03  0.32753769690E+03  0.00000000000E+00 0. -1.
        6    2    1    2  501    0  0.41998429946E+02  0.80742723589E+02  0.29019189021E+02  0.18817262527E+03  0.16212207758E+03 0.  0.
       24    2    3    3    0    0 -0.14111068502E+02  0.37389437263E+02  0.62585755970E+02  0.10958135560E+03  0.80585385599E+02 0.  0.
       -6    2    1    2    0  504 -0.41998429946E+02 -0.80742723589E+02 -0.20951651550E+03  0.28640544204E+03  0.17276472856E+03 0.  0.
      -24    2    5    5    0    0 -0.12372016813E+02 -0.10613409182E+03 -0.71805561830E+02  0.14319635471E+03  0.62702831243E+02 0.  0.
        5    1    3    3  501    0  0.56109498448E+02  0.43353286327E+02 -0.33566566948E+02  0.78591269668E+02  0.47000000000E+01 0. -1.
        4    1    4    4  502    0  0.12582796151E+02  0.52241609145E+02  0.57345501042E+02  0.78587651541E+02  0.00000000000E+00 0. -1.
       -3    1    4    4    0  502 -0.26693864652E+02 -0.14852171882E+02  0.52402549279E+01  0.30993704061E+02  0.00000000000E+00 0.  1.
       -5    1    5    5    0  504 -0.29626413133E+02  0.25391368228E+02 -0.13771095367E+03  0.14320908734E+03  0.47000000000E+01 0.  1.
       11    1    6    6    0    0  0.46051560952E+01 -0.47674240658E+02 -0.66689257455E+02  0.82106624245E+02  0.00000000000E+00 0. -1.
      -12    1    6    6    0    0 -0.16977172908E+02 -0.58459851159E+02 -0.51163043748E+01  0.61089730462E+02  0.00000000000E+00 0.  1.
</event>
<event>
12   0  0.1544783E-01  0.2189368E+03  0.7957747E-01  0.1141419E+00
       -2   -1    0    0    0  501  0.00000000000E+00  0.00000000000E+00  0.52068535609E+03  0.52068535609E+03  0.00000000000E+00 0.  1.
        2   -1    0    0  502    0  0.00000000000E+00  0.00000000000E+00 -0.11508151046E+03  0.11508151046E+03  0.00000000000E+00 0. -1.
        6    2    1    2  502    0  0.11499742845E+03  0.66988730131E+02  0.60931867892E+02  0.22766415166E+03  0.17437423809E+03 0.  0.
       24    2    3    3    0    0  0.69967207352E+02  0.11257694113E+03  0.46783262581E+02  0.16187449573E+03  0.80285122732E+02 0.  0.
       -6    2    1    2    0  501 -0.11499742845E+03 -0.66988730131E+02  0.34467197774E+03  0.40810271489E+03  0.17331230523E+03 0.  0.
      -24    2    5    5    0    0 -0.88996596997E+02 -0.20240165557E+02  0.99916644711E+02  0.15752591115E+03  0.80628891928E+02 0.  0.
        5    1    3    3  502    0  0.45030221093E+02 -0.45588211002E+02  0.14148605311E+02  0.65789655922E+02  0.47000000000E+01 0. -1.
      -13    1    4    4    0    0 -0.14428067810E+02  0.43726619571E+02  0.13360593270E+02  0.47944674911E+02  0.00000000000E+00 0.  1.
       14    1    4    4    0    0  0.84395275162E+02  0.68850321562E+02  0.33422669310E+02  0.11392982082E+03  0.00000000000E+00 0. -1.
       -5    1    5    5    0  501 -0.26000831448E+02 -0.46748564574E+02  0.24475533303E+03  0.25057680374E+03  0.47000000000E+01 0.  1.
        3    1    6    6  503    0 -0.23340552883E+02  0.30054208522E+02  0.41277745755E+02  0.56141688195E+02  0.00000000000E+00 0. -1.
       -4    1    6    6    0  503 -0.65656044114E+02 -0.50294374080E+02  0.58638898955E+02  0.10138422295E+03  0.00000000000E+00 0.  1.
</event>
<event>
12   0  0.1544783E-01  0.1774646E+03  0.7957747E-01  0.1175811E+00
       -2   -1    0    0    0  501  0.00000000000E+00  0.00000000000E+00  0.54449340042E+02  0.54449340042E+02  0.00000000000E+00 0. -1.
        2   -1    0    0  502    0  0.00000000000E+00  0.00000000000E+00 -0.76368761091E+03  0.76368761091E+03  0.00000000000E+00 0.  1.
        6    2    1    2  502    0 -0.49569589751E+02 -0.26324694874E+01 -0.15099513835E+03  0.23192960187E+03  0.16890155207E+03 0.  0.
       24    2    3    3    0    0 -0.37371570746E+02  0.61004543698E+02 -0.11536503984E+03  0.15783469627E+03  0.80526457012E+02 0.  0.
       -6    2    1    2    0  501  0.49569589751E+02  0.26324694874E+01 -0.55824313251E+03  0.58620734908E+03  0.17187084394E+03 0.  0.
      -24    2    5    5    0    0  0.27771794639E+02  0.53031468687E+02 -0.19900482696E+03  0.22276622157E+03  0.80238762886E+02 0.  0.
        5    1    3    3  502    0 -0.12198019005E+02 -0.63637013186E+02 -0.35630098511E+02  0.74094905593E+02  0.47000000000E+01 0. -1.
        4    1    4    4  503    0 -0.39790691158E+02  0.14123628499E+02 -0.11357090560E+02  0.43723671973E+02  0.00000000000E+00 0. -1.
       -3    1    4    4    0  503  0.24191204126E+01  0.46880915200E+02 -0.10400794928E+03  0.11411102430E+03  0.00000000000E+00 0.  1.
       -5    1    5    5    0  501  0.21797795112E+02 -0.50398999200E+02 -0.35923830555E+03  0.36344112751E+03  0.47000000000E+01 0.  1.
       13    1    6    6    0    0  0.49425921239E+02  0.27113127011E+02 -0.72544121684E+02  0.91873243861E+02  0.00000000000E+00 0. -1.
      -14    1    6    6    0    0 -0.21654126600E+02  0.25918341677E+02 -0.12646070527E+03  0.13089297770E+03  0.00000000000E+00 0.  1.
</event>
<event>
12   0  0.1544783E-01  0.1864577E+03  0.7957747E-01  0.1167531E+00
       21   -1    0    0  501  503  0.00000000000E+00  0.00000000000E+00  0.24203619999E+03  0.24203619999E+03  0.00000000000E+00 0.  1.
       21   -1    0    0  503  504  0.00000000000E+00  0.00000000000E+00 -0.34876758790E+03  0.34876758790E+03  0.00000000000E+00 0.  1.
        6    2    1    2  501    0  0.51250760957E+02 -0.41287325688E+02  0.17386213306E+03  0.25494023323E+03  0.17445686415E+03 0.  0.
       24    2    3    3    0    0  0.89914054229E+02 -0.66818817351E+02  0.11111114867E+03  0.17679624207E+03  0.79761722344E+02 0.  0.
       -6    2    1    2    0  504 -0.51250760957E+02  0.41287325688E+02 -0.28059352097E+03  0.33586355466E+03  0.17245381867E+03 0.  0.
      -24    2    5    5    0    0  0.31755978326E+02  0.44302894848E+02 -0.13064863336E+03  0.16438535854E+03  0.83560110408E+02 0.  0.
        5    1    3    3  501    0 -0.38663293272E+02  0.25531491662E+02  0.62750984384E+02  0.78143991159E+02  0.47000000000E+01 0. -1.
        2    1    4    4  502    0  0.60298258388E+01 -0.51974850959E+02  0.43154818713E+02  0.67823906626E+02  0.00000000000E+00 0. -1.
       -1    1    4    4    0  502  0.83884228390E+02 -0.14843966391E+02  0.67956329961E+02  0.10897233545E+03  0.00000000000E+00 0.  1.
       -5    1    5    5    0  504 -0.83006739283E+02 -0.30155691598E+01 -0.14994488761E+03  0.17147819612E+03  0.47000000000E+01 0.  1.
       13    1    6    6    0    0 -0.32089506375E+01  0.20347151984E+01  0.11451101429E+02  0.12065038503E+02  0.00000000000E+00 0. -1.
      -14    1    6    6    0    0  0.34964928964E+02  0.42268179650E+02 -0.14209973479E+03  0.15232032003E+03  0.00000000000E+00 0.  1.
</event>
<event>
12   0  0.1544783E-01  0.2363038E+03  0.7957747E-01  0.1129412E+00
       21   -1    0    0  504  503  0.00000000000E+00  0.00000000000E+00  0.11562396970E+03  0.11562396970E+03  0.00000000000E+00 0.  1.
       21   -1    0    0  501  504  0.00000000000E+00  0.00000000000E+00 -0.50837051221E+03  0.50837051221E+03  0.00000000000E+00 0.  1.
        6    2    1    2  501    0  0.15877410451E+03  0.17175937949E+01 -0.27106298799E+03  0.35820061575E+03  0.17210569798E+03 0.  0.
       24    2    3    3    0    0  0.17100132378E+02 -0.12987058863E+02 -0.56532274455E+02  0.10064817791E+03  0.80455450008E+02 0.  0.
       -6    2    1    2    0  503 -0.15877410451E+03 -0.17175937949E+01 -0.12168355452E+03  0.26579386616E+03  0.17500664403E+03 0.  0.
      -24    2    5    5    0    0 -0.18263636260E+02 -0.26126892359E+02 -0.49846757207E+02  0.10603898832E+03  0.87996550654E+02 0.  0.
        5    1    3    3  501    0  0.14167397213E+03  0.14704652658E+02 -0.21453071354E+03  0.25755243784E+03  0.47000000000E+01 0. -1.
      -11    1    4    4    0    0 -0.16473615040E+02 -0.83057050665E+01 -0.63426926120E+02  0.66055580280E+02  0.00000000000E+00 0.  1.
       12    1    4    4    0    0  0.33573747418E+02 -0.46813537965E+01  0.68946516651E+01  0.34592597628E+02  0.00000000000E+00 0. -1.
       -5    1    5    5    0  503 -0.14051046825E+03  0.24409298564E+02 -0.71836797317E+02  0.15975487783E+03  0.47000000000E+01 0.  1.
        1    1    6    6  502    0  0.16400460733E+02  0.13362725322E+02 -0.49127271954E+02  0.53488563170E+02  0.00000000000E+00 0. -1.
       -2    1    6    6    0  502 -0.34664096993E+02 -0.39489617680E+02 -0.71948525245E+00  0.52550425154E+02  0.00000000000E+00 0.  1.
</event>
<event>
12   0  0.1544783E-01  0.1791201E+03  0.7957747E-01  0.1174247E+00
       21   -1    0    0  504  503  0.00000000000E+00  0.00000000000E+00  0.40376311688E+02  0.40376311688E+02  0.00000000000E+00 0.  1.
       21   -1    0    0  501  504  0.00000000000E+00  0.00000000000E+00 -0.88055400588E+03  0.88055400588E+03  0.00000000000E+00 0. -1.
        6    2    1    2  501    0  0.20888503406E+02 -0.40086222340E+02 -0.27454781946E+03  0.32781168485E+03  0.17332270698E+03 0.  0.
       24    2    3    3    0    0 -0.32802510117E+02 -0.67587567360E+01 -0.24058429263E+03  0.25591553716E+03  0.80562242036E+02 0.  0.
       -6    2    1    2    0  503 -0.20888503406E+02  0.40086222340E+02 -0.56562987473E+03  0.59311863272E+03  0.17265376479E+03 0.  0.
      -24    2    5    5    0    0 -0.55000846933E+02 -0.12024739243E+02 -0.46464837502E+03  0.47438128568E+03  0.77264508531E+02 0.  0.
        5    1    3    3  501    0  0.53691013523E+02 -0.33327465604E+02 -0.33963526837E+02  0.71896147685E+02  0.47000000000E+01 0. -1.
        2    1    4    4  502    0  0.11785154238E+02 -0.31121159771E+02 -0.63569335555E+02  0.71752887529E+02  0.00000000000E+00 0. -1.
       -1    1    4    4    0  502 -0.44587664355E+02  0.24362403035E+02 -0.17701495707E+03  0.18416264964E+03  0.00000000000E+00 0.  1.
       -5    1    5    5    0  503  0.34112343528E+02  0.52110961583E+02 -0.10098149971E+03  0.11873734704E+03  0.47000000000E+01 0.  1.
       13    1    6    6    0    0 -0.74827442542E+02 -0.11025085890E+02 -0.35833753480E+03  0.36623283240E+03  0.00000000000E+00 0. -1.
      -14    1    6    6    0    0  0.19826595609E+02 -0.99965335295E+00 -0.10631084022E+03  0.10814845329E+03  0.00000000000E+00 0.  1.
</event>
<event>
12   0  0.1544783E-01  0.1781031E+03  0.7957747E-01  0.1175206E+00
       21   -1    0    0  501  503  0.00000000000E+00  0.00000000000E+00  0.42293585319E+03  0.42293585319E+03  0.00000000000E+00 0.  1.
       21   -1    0    0  503  504  0.00000000000E+00  0.00000000000E+00 -0.79987099341E+02  0.79987099341E+02  0.00000000000E+00 0. -1.
        6    2    1    2  501    0  0.35412335981E+02 -0.15540092379E+02  0.23587665036E+03  0.29556475550E+03  0.17385396890E+03 0.  0.
       24    2    3    3    0    0  0.19719600761E+02  0.35268732407E+01  0.25156565697E+03  0.26593291376E+03  0.83867355758E+02 0.  0.
       -6    2    1    2    0  504 -0.35412335981E+02  0.15540092379E+02  0.10707210349E+03  0.20735819703E+03  0.17331318045E+03 0.  0.
      -24    2    5    5    0    0  0.46119542397E+02  0.67724732373E+01  0.33246608114E+02  0.96919924202E+02  0.78200103398E+02 0.  0.
        5    1    3    3  501    0  0.15692735219E+02 -0.19066965620E+02 -0.15689006617E+02  0.29631841746E+02  0.47000000000E+01 0. -1.
        2    1    4    4  502    0  0.26625797982E+02  0.34798455117E+02  0.20358144504E+03  0.20824329608E+03  0.00000000000E+00 0. -1.
       -1    1    4    4    0  502 -0.69061972204E+01 -0.31271581876E+02  0.47984211930E+02  0.57689617676E+02  0.00000000000E+00 0.  1.
       -5    1    5    5    0  504 -0.81531878378E+02  0.87676191418E+01  0.73825495376E+02  0.11043827283E+03  0.47000000000E+01 0.  1.
       11    1    6    6    0    0  0.30032259985E+02 -0.87866313830E+01  0.56537403316E+02  0.64619033609E+02  0.00000000000E+00 0. -1.
      -12    1    6    6    0    0  0.16087282412E+02  0.15559104620E+02 -0.23290795201E+02  0.32300890593E+02  0.00000000000E+00 0.  1.
</event>
<event>
12   0  0.1544783E-01  0.2091563E+03  0.7957747E-01  0.1148731E+00
       21   -1    0    0  501  503  0.00000000000E+00  0.00000000000E+00  0.45076702134E+02  0.45076702134E+02  0.00000000000E+00 0.  1.
       21   -1    0    0  503  504  0.00000000000E+00  0.00000000000E+00 -0.97547661558E+03  0.97547661558E+03  0.00000000000E+00 0.  1.
        6    2    1    2  501    0 -0.58436149870E+02  0.10391915739E+03 -0.51141955463E+03  0.55226827071E+03  0.17098627750E+03 0.  0.
       24    2    3    3    0    0 -0.90142706899E+02  0.65152890122E+02 -0.46154824882E+03  0.48143490018E+03  0.79888487478E+02 0.  0.
       -6    2    1    2    0  504  0.58436149870E+02 -0.10391915739E+03 -0.41898035882E+03  0.46828504700E+03  0.17184984518E+03 0.  0.
      -24    2    5    5    0    0  0.37533119894E+02 -0.12466870221E+02 -0.95848457601E+02  0.13177832631E+03  0.81329223022E+02 0.  0.
        5    1    3    3  501    0  0.31706557029E+02  0.38766267270E+02 -0.49871305810E+02  0.70833370525E+02  0.47000000000E+01 0. -1.
        2    1    4    4  502    0 -0.44519961047E+02 -0.62176880265E+01 -0.24145914036E+03  0.24560782365E+03  0.00000000000E+00 0. -1.
       -1    1    4    4    0  502 -0.45622745852E+02  0.71370578148E+02 -0.22008910846E+03  0.23582707653E+03  0.00000000000E+00 0.  1.
       -5    1    5    5    0  504  0.20903029975E+02 -0.91452287171E+02 -0.32313190122E+03  0.33650672070E+03  0.47000000000E+01 0.  1.
       11    1    6    6    0    0 -0.23672942997E+02 -0.16646505922E+02 -0.34285768322E+02  0.44866783916E+02  0.00000000000E+00 0. -1.
      -12    1    6    6    0    0  0.61206062891E+02  0.41796357009E+01 -0.61562689278E+02  0.86911542389E+02  0.00000000000E+00 0.  1.
</event>
<event>
12   0  0.1544783E-01  0.1795966E+03  0.7957747E-01  0.1173800E+00
       21   -1    0    0  501  503  0.00000000000E+00  0.00000000000E+00  0.10518658032E+03  0.10518658032E+03  0.00000000000E+00 0.  1.
       21   -1    0    0  503  504  0.00000000000E+00  0.00000000000E+00 -0.46853505676E+03  0.46853505676E+03  0.00000000000E+00 0.  1.
        6    2    1    2  501    0 -0.24204990493E+02  0.28131475804E+02 -0.11768362221E+02  0.17998177830E+03  0.17572047312E+03 0.  0.
       24    2    3    3    0    0  0.42940104512E+02 -0.21605805999E+01 -0.41296900931E+02  0.10048274017E+03  0.80887739258E+02 0.  0.
       -6    2    1    2    0  504  0.24204990493E+02 -0.28131475804E+02 -0.35158011421E+03  0.39373985878E+03  0.17333562295E+03 0.  0.
      -24    2    5    5    0    0  0.40174778916E+02  0.38161800440E+02 -0.18394796704E+03  0.21270820578E+03  0.91310406620E+02 0.  0.
        5    1    3    3  501    0 -0.67145095005E+02  0.30292056404E+02  0.29528538710E+02  0.79499038124E+02  0.47000000000E+01 0. -1.
      -13    1    4    4    0    0  0.19980466370E+02  0.12585768105E+02  0.21549021859E+02  0.31968436593E+02  0.00000000000E+00 0.  1.
       14    1    4    4    0    0  0.22959638142E+02 -0.14746348705E+02 -0.62845922790E+02  0.68514303580E+02  0.00000000000E+00 0. -1.
       -5    1    5    5    0  504 -0.15969788423E+02 -0.66293276244E+02 -0.16763214718E+03  0.18103165299E+03  0.47000000000E+01 0.  1.
        1    1    6    6  502    0  0.11923160730E+02  0.41498501319E+02 -0.17862138825E+03  0.18376585024E+03  0.00000000000E+00 0. -1.
       -2    1    6    6    0  502  0.28251618186E+02 -0.33367008790E+01 -0.53265787854E+01  0.28942355544E+02  0.00000000000E+00 0.  1.
</event>
<event>
12   0  0.1544783E-01  0.1821666E+03  0.7957747E-01  0.1171416E+00
       21   -1    0    0  501  503  0.00000000000E+00  0.00000000000E+00  0.14789546764E+03  0.14789546764E+03  0.00000000000E+00 0. -1.
       21   -1    0    0  503  504  0.00000000000E+00  0.00000000000E+00 -0.23990859201E+03  0.23990859201E+03  0.00000000000E+00 0. -1.
        6    2    1    2  501    0 -0.38863265090E+02  0.35313752039E+02  0.62867940395E+01  0.18080756853E+03  0.17290008271E+03 0.  0.
       24    2    3    3    0    0  0.89200962983E+01  0.77961121950E+02  0.18746735832E+02  0.11539053760E+03  0.82498675204E+02 0.  0.
       -6    2    1    2    0  504  0.38863265090E+02 -0.35313752039E+02 -0.98299918413E+02  0.20699649111E+03  0.17443411053E+03 0.  0.
      -24    2    5    5    0    0  0.73299354910E+02 -0.72759828187E+02 -0.76242101112E+02  0.15134857826E+03  0.80166989035E+02 0.  0.
        5    1    3    3  501    0 -0.47783361388E+02 -0.42647369911E+02 -0.12459941793E+02  0.65417030928E+02  0.47000000000E+01 0. -1.
        4    1    4    4  502    0  0.26474360713E+02  0.89095222957E+02  0.13219936462E+02  0.93880867321E+02  0.00000000000E+00 0. -1.
       -3    1    4    4    0  502 -0.17554264414E+02 -0.11134101007E+02  0.55267993703E+01  0.21509670282E+02  0.00000000000E+00 0.  1.
       -5    1    5    5    0  504 -0.34436089820E+02  0.37446076148E+02 -0.22057817301E+02  0.55647912855E+02  0.47000000000E+01 0.  1.
       13    1    6    6    0    0  0.23910692458E+02 -0.66437187307E+02 -0.72831971653E+02  0.10144021474E+03  0.00000000000E+00 0. -1.
      -14    1    6    6    0    0  0.49388662452E+02 -0.63226408804E+01 -0.34101294590E+01  0.49908363522E+02  0.00000000000E+00 0.  1.
</event>
<event>
12   0  0.1544783E-01  0.2053848E+03  0.7957747E-01  0.1151669E+00
       21   -1    0    0  504  503  0.00000000000E+00  0.00000000000E+00  0.31436297852E+03  0.31436297852E+03  0.00000000000E+00 0.  1.
       21   -1    0    0  501  504  0.00000000000E+00  0.00000000000E+00 -0.14778180525E+03  0.14778180525E+03  0.00000000000E+00 0.  1.
        6    2    1    2  501    0 -0.76680035666E+02  0.80689938267E+02  0.12172117086E+02  0.20519130734E+03  0.17194364823E+03 0.  0.
       24    2    3    3    0    0 -0.98651984522E+02  0.89379956727E+02 -0.27742134832E+02  0.15857027707E+03  0.81571539215E+02 0.  0.
       -6    2    1    2    0  503  0.76680035666E+02 -0.80689938267E+02  0.15440905619E+03  0.25695347644E+03  0.17260428272E+03 0.  0.
      -24    2    5    5    0    0 -0.61767107201E+01 -0.99925314653E+02  0.86485975820E+02  0.14799993141E+03  0.66339546432E+02 0.  0.
        5    1    3    3  501    0  0.21971948856E+02 -0.86900184597E+01  0.39914251918E+02  0.46621030271E+02  0.47000000000E+01 0. -1.
      -11    1    4    4    0    0 -0.48496591629E+02  0.89284233140E+02 -0.73928534631E+00  0.10160777642E+03  0.00000000000E+00 0.  1.
       12    1    4    4    0    0 -0.50155392893E+02  0.95723586205E-01 -0.27002849485E+02  0.56962500644E+02  0.00000000000E+00 0. -1.
       -5    1    5    5    0  503  0.82856746386E+02  0.19235376386E+02  0.67923080367E+02  0.10895354502E+03  0.47000000000E+01 0.  1.
        1    1    6    6  502    0  0.25497771407E+02 -0.31115190975E+02  0.12530507343E+02  0.42134369230E+02  0.00000000000E+00 0. -1.
       -2    1    6    6    0  502 -0.31674482127E+02 -0.68810123678E+02  0.73955468477E+02  0.10586556218E+03  0.00000000000E+00 0.  1.
</event>
<event>
12   0  0.1544783E-01  0.1760565E+03  0.7957747E-01  0.1177157E+00
       21   -1    0    0  501  503  0.00000000000E+00  0.00000000000E+00  0.64223254599E+03  0.64223254599E+03  0.00000000000E+00 0.  1.
       21   -1    0    0  503  504  0.00000000000E+00  0.00000000000E+00 -0.10757274296E+03  0.10757274296E+03  0.00000000000E+00 0.  1.
        6    2    1    2  501    0 -0.24883957138E+02  0.16666560064E+02  0.54623392117E+03  0.57336877394E+03  0.17170692688E+03 0.  0.
       24    2    3    3    0    0 -0.51684296352E+02 -0.46771122707E+02  0.28398627614E+03  0.30218891646E+03  0.76230779773E+02 0.  0.
       -6    2    1    2    0  504  0.24883957138E+02 -0.16666560064E+02 -0.11574118149E+02  0.17643651501E+03  0.17349034000E+03 0.  0.
      -24    2    5    5    0    0 -0.47403596641E+01 -0.75636838955E+02 -0.69176520119E+01  0.11011256296E+03  0.79583416592E+02 0.  0.
        5    1    3    3  501    0  0.26800339214E+02  0.63437682771E+02  0.26224764503E+03  0.27117985748E+03  0.47000000000E+01 0. -1.
      -11    1    4    4    0    0  0.13151959261E+02 -0.10396752342E+01  0.89628772735E+01  0.15949549399E+02  0.00000000000E+00 0.  1.
       12    1    4    4    0    0 -0.64836255613E+02 -0.45731447473E+02  0.27502339887E+03  0.28623936706E+03  0.00000000000E+00 0. -1.
       -5    1    5    5    0  504  0.29624316802E+02  0.58970278891E+02 -0.46564661373E+01  0.66323952049E+02  0.47000000000E+01 0.  1.
        1    1    6    6  502    0  0.13428575350E+02 -0.86072464486E+02 -0.13492913752E+02  0.88152450335E+02  0.00000000000E+00 0. -1.
       -2    1    6    6    0  502 -0.18168935014E+02  0.10435625531E+02  0.65752617398E+01  0.21960112630E+02  0.00000000000E+00 0.  1.
</event>
<event>
12   0  0.1544783E-01  0.1782000E+03  0.7957747E-01  0.1175114E+00
       21   -1    0    0  504  503  0.00000000000E+00  0.00000000000E+00  0.44788596290E+02  0.44788596290E+02  0.00000000000E+00 0.  1.
       21   -1    0    0  501  504  0.00000000000E+00  0.00000000000E+00 -0.73332194212E+03  0.73332194212E+03  0.00000000000E+00 0.  1.
        6    2    1    2  501    0  0.20945347052E+02  0.36991901710E+02 -0.41986329200E+03  0.45571508170E+03  0.17199983535E+03 0.  0.
       24    2    3    3    0    0 -0.25612993298E+02  0.49684727649E+02 -0.38241114373E+03  0.39444893855E+03  0.78911879217E+02 0.  0.
       -6    2    1    2    0  503 -0.20945347052E+02 -0.36991901710E+02 -0.26867005383E+03  0.32239545672E+03  0.17305526381E+03 0.  0.
      -24    2    5    5    0    0 -0.31063881927E+02  0.43226457601E+02 -0.15655121844E+03  0.18408387670E+03  0.80901781606E+02 0.  0.
        5    1    3    3  501    0  0.46558340350E+02 -0.12692825939E+02 -0.37452148267E+02  0.61266143148E+02  0.47000000000E+01 0. -1.
        4    1    4    4  502    0 -0.53888426248E+02  0.27305263506E+02 -0.22601175480E+03  0.23394626137E+03  0.00000000000E+00 0. -1.
       -3    1    4    4    0  502  0.28275432950E+02  0.22379464144E+02 -0.15639938893E+03  0.16050267718E+03  0.00000000000E+00 0.  1.
       -5    1    5    5    0  503  0.10118534875E+02 -0.80218359311E+02 -0.11211883539E+03  0.13831158002E+03  0.47000000000E+01 0.  1.
       11    1    6    6    0    0  0.16638614355E+02 -0.12923613406E+02 -0.52670656806E+02  0.56727959240E+02  0.00000000000E+00 0. -1.
      -12    1    6    6    0    0 -0.47702496282E+02  0.56150071007E+02 -0.10388056164E+03  0.12735591746E+03  0.00000000000E+00 0.  1.
</event>
<event>
12   0  0.1544783E-01  0.2192425E+03  0.7957747E-01  0.1141198E+00
       21   -1    0    0  501  503  0.00000000000E+00  0.00000000000E+00  0.18099676634E+03  0.18099676634E+03  0.00000000000E+00 0.  1.
       21   -1    0    0  503  504  0.00000000000E+00  0.00000000000E+00 -0.55215886587E+03  0.55215886587E+03  0.00000000000E+00 0.  1.
        6    2    1    2  501    0 -0.76753693317E+02  0.11101790723E+03  0.79022106211E+02  0.23304882477E+03  0.17277487171E+03 0.  0.
       24    2    3    3    0    0  0.16424250639E+01  0.11773792775E+02  0.64197944842E+02  0.10562358633E+03  0.83027983907E+02 0.  0.
       -6    2    1    2    0  504  0.76753693317E+02 -0.11101790723E+03 -0.45018420574E+03  0.50010680744E+03  0.17095290167E+03 0.  0.
      -24    2    5    5    0    0  0.64358423108E+01 -0.68474942782E+01 -0.11329079618E+03  0.14050239352E+03  0.82570029928E+02 0.  0.
        5    1    3    3  501    0 -0.78396118380E+02  0.99244114456E+02  0.14824161369E+02  0.12742523844E+03  0.47000000000E+01 0. -1.
        4    1    4    4  502    0  0.92359266029E+01  0.33679112805E+02  0.72921515373E+02  0.80852534801E+02  0.00000000000E+00 0. -1.
       -3    1    4    4    0  502 -0.75935015390E+01 -0.21905320030E+02 -0.87235705304E+01  0.24771051533E+02  0.00000000000E+00 0.  1.
       -5    1    5    5    0  504  0.70317851006E+02 -0.10417041295E+03 -0.33689340956E+03  0.35960441392E+03  0.47000000000E+01 0.  1.
       11    1    6    6    0    0 -0.10214321851E+02 -0.34704136840E+02 -0.19165303167E+02  0.40939202852E+02  0.00000000000E+00 0. -1.
      -12    1    6    6    0    0  0.16650164162E+02  0.27856642562E+02 -0.94125493011E+02  0.99563190669E+02  0.00000000000E+00 0.  1.
</event>
<event>
12   0  0.1544783E-01  0.2008720E+03  0.7957747E-01  0.1155275E+00
       21   -1    0    0  501  503  0.00000000000E+00  0.00000000000E+00  0.43828056894E+02  0.43828056894E+02  0.00000000000E+00 0.  1.
       21   -1    0    0  503  504  0.00000000000E+00  0.00000000000E+00 -0.91805933796E+03  0.91805933796E+03  0.00000000000E+00 0.  1.
        6    2    1    2  501    0 -0.55971499516E+02  0.84827808332E+02 -0.47878971650E+03  0.51835207348E+03  0.17064792302E+03 0.  0.
       24    2    3    3    0    0 -0.77161229830E+02  0.21056345530E+01 -0.29895626917E+03  0.31921864714E+03  0.81039525680E+02 0.  0.
       -6    2    1    2    0  504  0.55971499516E+02 -0.84827808332E+02 -0.39544156457E+03  0.44353532137E+03  0.17326564719E+03 0.  0.
      -24    2    5    5    0    0  0.80787798506E+02 -0.30299926477E+01 -0.25295902404E+03  0.27731229138E+03  0.79862318167E+02 0.  0.
        5    1    3    3  501    0  0.21189730314E+02  0.82722173779E+02 -0.17983344733E+03  0.19913342633E+03  0.47000000000E+01 0. -1.
      -11    1    4    4    0    0 -0.72310667472E+02  0.31439218038E+02 -0.17836507553E+03  0.19501629991E+03  0.00000000000E+00 0.  1.
       12    1    4    4    0    0 -0.48505623584E+01 -0.29333583485E+02 -0.12059119364E+03  0.12420234724E+03  0.00000000000E+00 0. -1.
       -5    1    5    5    0  504 -0.24816298990E+02 -0.81797815685E+02 -0.14248254053E+03  0.16622303000E+03  0.47000000000E+01 0.  1.
        3    1    6    6  502    0  0.33708929792E+02  0.37880907516E+02 -0.12724647229E+03  0.13697780773E+03  0.00000000000E+00 0. -1.
       -4    1    6    6    0  502  0.47078868714E+02 -0.40910900163E+02 -0.12571255175E+03  0.14033448365E+03  0.00000000000E+00 0.  1.
</event>
<event>
12   0  0.1544783E-01  0.1881715E+03  0.7957747E-01  0.1166011E+00
       21   -1    0    0  504  503  0.00000000000E+00  0.00000000000E+00  0.15760076181E+03  0.15760076181E+03  0.00000000000E+00 0.  1.
       21   -1    0    0  501  504  0.00000000000E+00  0.00000000000E+00 -0.48681969161E+03  0.48681969161E+03  0.00000000000E+00 0.  1.
        6    2    1    2  501    0 -0.59122738050E+02  0.40110385138E+02 -0.40139319709E+03  0.44288229188E+03  0.17298521511E+03 0.  0.
       24    2    3    3    0    0  0.90742740025E+01 -0.15806214487E+02 -0.12738211081E+03  0.15499053450E+03  0.86392619857E+02 0.  0.
       -6    2    1    2    0  503  0.59122738050E+02 -0.40110385138E+02  0.72174267292E+02  0.20153816154E+03  0.17408091379E+03 0.  0.
      -24    2    5    5    0    0 -0.19812874481E+02 -0.13817721749E+02 -0.89509651147E+01  0.85238856265E+02  0.81253082473E+02 0.  0.
        5    1    3    3  501    0 -0.68197012053E+02  0.55916599625E+02 -0.27401108628E+03  0.28789175738E+03  0.47000000000E+01 0. -1.
      -13    1    4    4    0    0  0.18257088426E+02  0.32931953408E+02 -0.66953580132E+02  0.76815471915E+02  0.00000000000E+00 0.  1.
       14    1    4    4    0    0 -0.91828144236E+01 -0.48738167895E+02 -0.60428530676E+02  0.78175062585E+02  0.00000000000E+00 0. -1.
       -5    1    5    5    0  503  0.78935612531E+02 -0.26292663390E+02  0.81125232406E+02  0.11629930527E+03  0.47000000000E+01 0.  1.
        1    1    6    6  502    0 -0.32095936429E+01 -0.46447944971E+02 -0.13168775991E+02  0.48385222377E+02  0.00000000000E+00 0. -1.
       -2    1    6    6    0  502 -0.16603280838E+02  0.32630223222E+02  0.42178108764E+01  0.36853633887E+02  0.00000000000E+00 0.  1.
</event>
<event>
12   0  0.1544783E-01  0.2245622E+03  0.7957747E-01  0.1137401E+00
       21   -1    0    0  501  503  0.00000000000E+00  0.00000000000E+00  0.10009673802E+04  0.10009673802E+04  0.00000000000E+00 0.  1.
       21   -1    0    0  503  504  0.00000000000E+00  0.00000000000E+00 -0.54327995409E+02  0.54327995409E+02  0.00000000000E+00 0.  1.
        6    2    1    2  501    0 -0.10586235052E+03  0.95623210098E+02  0.62286893090E+03  0.66127067297E+03  0.17018390723E+03 0.  0.
       24    2    3    3    0    0 -0.33793537012E+02 -0.11624478401E+02  0.20275775441E+03  0.22171240472E+03  0.82271208779E+02 0.  0.
       -6    2    1    2    0  504  0.10586235052E+03 -0.95623210098E+02  0.32377045386E+03  0.39402470261E+03  0.17342872861E+03 0.  0.
      -24    2    5    5    0    0  0.12239820199E+02  0.34242924583E+01  0.16468886873E+03  0.18449039355E+03  0.82175074388E+02 0.  0.
        5    1    3    3  501    0 -0.72068813509E+02  0.10724768850E+03  0.42011117650E+03  0.43955826825E+03  0.47000000000E+01 0. -1.
        2    1    4    4  502    0  0.16844873344E+02 -0.30566536523E+02  0.93700075980E+02  0.99988835135E+02  0.00000000000E+00 0. -1.
       -1    1    4    4    0  502 -0.50638410356E+02  0.18942058122E+02  0.10905767843E+03  0.12172356959E+03  0.00000000000E+00 0.  1.
       -5    1    5    5    0  504  0.93622530322E+02 -0.99047502556E+02  0.15908158513E+03  0.20953430906E+03  0.47000000000E+01 0.  1.
       11    1    6    6    0    0 -0.80873677815E+01  0.18731955533E+02  0.27772631153E+01  0.20591378442E+02  0.00000000000E+00 0. -1.
      -12    1    6    6    0    0  0.20327187980E+02 -0.15307663075E+02  0.16191160562E+03  0.16389901511E+03  0.00000000000E+00 0.  1.
</event>
<event>
12   0  0.1544783E-01  0.2526532E+03  0.7957747E-01  0.1119095E+00
       21   -1    0    0  501  503  0.00000000000E+00  0.00000000000E+00  0.28138546062E+03  0.28138546062E+03  0.00000000000E+00 0.  1.
       21   -1    0    0  503  504  0.00000000000E+00  0.00000000000E+00 -0.29908854079E+03  0.29908854079E+03  0.00000000000E+00 0.  1.
        6    2    1    2  501    0 -0.60080825183E+02  0.17378862798E+03  0.13514273959E+03  0.28518518724E+03  0.17104045774E+03 0.  0.
       24    2    3    3    0    0 -0.75978688909E+01  0.51706387162E+02  0.98068726808E+00  0.96293470882E+02  0.80871457894E+02 0.  0.
       -6    2    1    2    0  504  0.60080825183E+02 -0.17378862798E+03 -0.15284581976E+03  0.29528881418E+03  0.17326698009E+03 0.  0.
      -24    2    5    5    0    0  0.28831087846E+02 -0.17203854463E+02 -0.89031537071E+02  0.12327227411E+03  0.78372410555E+02 0.  0.
        5    1    3    3  501    0 -0.52482956292E+02  0.12208224082E+03  0.13416205232E+03  0.18889171636E+03  0.47000000000E+01 0. -1.
      -11    1    4    4    0    0 -0.32005375447E+02  0.61131511181E+02 -0.58558133675E+01  0.69250965820E+02  0.00000000000E+00 0.  1.
       12    1    4    4    0    0  0.24407506556E+02 -0.94251240189E+01  0.68365006356E+01  0.27042505062E+02  0.00000000000E+00 0. -1.
       -5    1    5    5    0  504  0.31249737337E+02 -0.15658477352E+03 -0.63814282692E+02  0.17201654007E+03  0.47000000000E+01 0.  1.
        1    1    6    6  502    0  0.27829551514E+02 -0.47417460921E+02 -0.59448520218E+02  0.80975465999E+02  0.00000000000E+00 0. -1.
       -2    1    6    6    0  502  0.10015363317E+01  0.30213606458E+02 -0.29583016853E+02  0.42296808111E+02  0.00000000000E+00 0.  1.
</event>
<event>
12   0  0.1544783E-01  0.1863705E+03  0.7957747E-01  0.1167609E+00
       -1   -1    0    0    0  501  0.00000000000E+00  0.00000000000E+00  0.17777028210E+03  0.17777028210E+03  0.00000000000E+00 0.  1.
        1   -1    0    0  502    0  0.00000000000E+00  0.00000000000E+00 -0.32129129205E+03  0.32129129205E+03  0.00000000000E+00 0. -1.
        6    2    1    2  502    0  0.56546229367E+01  0.66363783237E+02 -0.22808661878E+03  0.29487737881E+03  0.17462255405E+03 0.  0.
       24    2    3    3    0    0 -0.36608380448E+02  0.61161130809E+02 -0.22786366482E+03  0.25203617486E+03  0.80743583363E+02 0.  0.
       -6    2    1    2    0  501 -0.56546229367E+01 -0.66363783237E+02  0.84565608826E+02  0.20418419533E+03  0.17350422745E+03 0.  0.
      -24    2    5    5    0    0 -0.99497637240E+01 -0.12250046953E+02 -0.22935976568E+02  0.83662721931E+02  0.78894426744E+02 0.  0.
        5    1    3    3  502    0  0.42263003385E+02  0.52026524279E+01 -0.22295396039E+00  0.42841203950E+02  0.47000000000E+01 0. -1.
        4    1    4    4  503    0 -0.53288791562E+02  0.34923637763E+02 -0.20130174707E+03  0.21114390627E+03  0.00000000000E+00 0. -1.
       -3    1    4    4    0  503  0.16680411114E+02  0.26237493046E+02 -0.26561917744E+02  0.40892268591E+02  0.00000000000E+00 0.  1.
       -5    1    5    5    0  501  0.42951407873E+01 -0.54113736284E+02  0.10750158539E+03  0.12052147340E+03  0.47000000000E+01 0.  1.
       13    1    6    6    0    0  0.11775024928E+02  0.26287821710E+02 -0.26683709987E+02  0.39264757238E+02  0.00000000000E+00 0. -1.
      -14    1    6    6    0    0 -0.21724788652E+02 -0.38537868663E+02  0.37477334193E+01  0.44397964692E+02  0.00000000000E+00 0.  1.
</event>
<event>
12   0  0.1544783E-01  0.2547093E+03  0.7957747E-01  0.1117858E+00
       -2   -1    0    0    0  501  0.00000000000E+00  0.00000000000E+00  0.66881790602E+02  0.66881790602E+02  0.00000000000E+00 0.  1.
        2   -1    0    0  502    0  0.00000000000E+00  0.00000000000E+00 -0.10063782725E+04  0.10063782725E+04  0.00000000000E+00 0. -1.
        6    2    1    2  502    0  0.10343119740E+03  0.15500415807E+03 -0.36739020797E+03  0.44693234257E+03  0.17334547099E+03 0.  0.
       24    2    3    3    0    0  0.50101589255E+02  0.17012067429E+03 -0.31627804511E+03  0.37138699620E+03  0.80282538935E+02 0.  0.
       -6    2    1    2    0  501 -0.10343119740E+03 -0.15500415807E+03 -0.57210627392E+03  0.62632772051E+03  0.17394402322E+03 0.  0.
      -24    2    5    5    0    0 -0.82638350580E+02 -0.80252707473E+02 -0.51164024930E+03  0.52784750941E+03  0.59813497202E+02 0.  0.
        5    1    3    3  502    0  0.53329608146E+02 -0.15116516219E+02 -0.51112162853E+02  0.75545346376E+02  0.47000000000E+01 0. -1.
      -11    1    4    4    0    0 -0.18794661658E+02  0.72817445264E+02 -0.11341903125E+03  0.13608635601E+03  0.00000000000E+00 0.  1.
       12    1    4    4    0    0  0.68896250913E+02  0.97303229024E+02 -0.20285901386E+03  0.23530064019E+03  0.00000000000E+00 0. -1.
       -5    1    5    5    0  501 -0.20792846821E+02 -0.74751450597E+02 -0.60466024619E+02  0.98480211101E+02  0.47000000000E+01 0.  1.
        3    1    6    6  503    0 -0.27935088647E+02 -0.61268848576E+02 -0.34289196092E+03  0.34944117938E+03  0.00000000000E+00 0. -1.
       -4    1    6    6    0  503 -0.54703261933E+02 -0.18983858897E+02 -0.16874828838E+03  0.17840633003E+03  0.00000000000E+00 0.  1.
</event>
<event>
12   0  0.1544783E-01  0.1761600E+03  0.7957747E-01  0.1177057E+00
        2   -1    0    0  502    0  0.00000000000E+00  0.00000000000E+00  0.35348876427E+03  0.35348876427E+03  0.00000000000E+00 0. -1.
       -2   -1    0    0    0  501  0.00000000000E+00  0.00000000000E+00 -0.87792155733E+02  0.87792155733E+02  0.00000000000E+00 0.  1.
        6    2    1    2  502    0 -0.31766525441E+02 -0.30536354827E+01  0.13293060256E+03  0.22146120647E+03  0.17422997459E+03 0.  0.
       24    2    3    3    0    0 -0.87268765197E+02 -0.40582279684E+01  0.10898271751E+03  0.16082211823E+03  0.79713326387E+02 0.  0.
       -6    2    1    2    0  501  0.31766525441E+02  0.30536354827E+01  0.13276600598E+03  0.21981971353E+03  0.17226565904E+03 0.  0.
      -24    2    5    5    0    0  0.70488664017E+02  0.72027563658E+01  0.14370469377E+03  0.17909669657E+03  0.80025347582E+02 0.  0.
        5    1    3    3  502    0  0.55502239756E+02  0.10045924857E+01  0.23947885052E+02  0.60639088239E+02  0.47000000000E+01 0. -1.
        4    1    4    4  503    0 -0.83690536952E+02 -0.31888471042E+02  0.89839113304E+02  0.12685443169E+03  0.00000000000E+00 0. -1.
       -3    1    4    4    0  503 -0.35782282452E+01  0.27830243074E+02  0.19143604205E+02  0.33967686540E+02  0.00000000000E+00 0.  1.
       -5    1    5    5    0  501 -0.38722138576E+02 -0.41491208831E+01 -0.10938687795E+02  0.40723016964E+02  0.47000000000E+01 0.  1.
       13    1    6    6    0    0  0.37851797558E+02  0.39143267917E+02  0.46130267645E+02  0.71364946540E+02  0.00000000000E+00 0. -1.
      -14    1    6    6    0    0  0.32636866459E+02 -0.31940511551E+02  0.97574426126E+02  0.10773175003E+03  0.00000000000E+00 0.  1.
</event>
<event>
12   0  0.1544783E-01  0.1980891E+03  0.7957747E-01  0.1157552E+00
       21   -1    0    0  501  503  0.00000000000E+00  0.00000000000E+00  0.20877882569E+02  0.20877882569E+02  0.00000000000E+00 0.  1.
       21   -1    0    0  503  504  0.00000000000E+00  0.00000000000E+00 -0.16784525345E+04  0.16784525345E+04  0.00000000000E+00 0.  1.
        6    2    1    2  501    0  0.40925622434E+02 -0.15980414045E+02 -0.84442599522E+03  0.86734914727E+03  0.19315538216E+03 0.  0.
       24    2    3    3    0    0  0.82192671596E+02 -0.49522132422E+02 -0.74035723695E+03  0.75038585104E+03  0.75776053353E+02 0.  0.
       -6    2    1    2    0  504 -0.40925622434E+02  0.15980414045E+02 -0.81314865670E+03  0.83198126980E+03  0.17044593039E+03 0.  0.
      -24    2    5    5    0    0 -0.67201053164E+02 -0.23192260447E+02 -0.71679612698E+03  0.72459972263E+03  0.78703290234E+02 0.  0.
        5    1    3    3  501    0 -0.41267049162E+02  0.33541718377E+02 -0.10406875827E+03  0.11696329623E+03  0.47000000000E+01 0. -1.
        4    1    4    4  502    0  0.28808162710E+02 -0.22386228819E+02 -0.54098762342E+03  0.54221643480E+03  0.00000000000E+00 0. -1.
       -3    1    4    4    0  502  0.53384508886E+02 -0.27135903603E+02 -0.19936961354E+03  0.20816941623E+03  0.00000000000E+00 0.  1.
       -5    1    5    5    0  504  0.26275430730E+02  0.39172674492E+02 -0.96352529724E+02  0.10738154716E+03  0.47000000000E+01 0.  1.
       11    1    6    6    0    0 -0.48506969980E+02 -0.40156666791E+02 -0.27648670551E+03  0.28356724484E+03  0.00000000000E+00 0. -1.
      -12    1    6    6    0    0 -0.18694083184E+02  0.16964406344E+02 -0.44030942147E+03  0.44103247779E+03  0.00000000000E+00 0.  1.
</event>
<event>
12   0  0.1544783E-01  0.1886496E+03  0.7957747E-01  0.1165590E+00
        1   -1    0    0  502    0  0.00000000000E+00  0.00000000000E+00  0.72744320600E+03  0.72744320600E+03  0.00000000000E+00 0.  1.
       -1   -1    0    0    0  501  0.00000000000E+00  0.00000000000E+00 -0.49599384968E+02  0.49599384968E+02  0.00000000000E+00 0. -1.
        6    2    1    2  502    0  0.46249103346E+02 -0.61809879534E+02  0.38219784745E+03  0.42571521680E+03  0.17087659420E+03 0.  0.
       24    2    3    3    0    0 -0.31879295028E+02 -0.35975015517E+02  0.13062447398E+03  0.16098376972E+03  0.80885905557E+02 0.  0.
       -6    2    1    2    0  501 -0.46249103346E+02  0.61809879534E+02  0.29564597357E+03  0.35132737417E+03  0.17339244903E+03 0.  0.
      -24    2    5    5    0    0  0.15653622024E+02 -0.15335529142E+02  0.13099210986E+03  0.15919110397E+03  0.87764801610E+02 0.  0.
        5    1    3    3  502    0  0.78128398374E+02 -0.25834864017E+02  0.25157337347E+03  0.26473144708E+03  0.47000000000E+01 0. -1.
      -13    1    4    4    0    0  0.15264843832E+02 -0.43106471098E+02  0.73629329278E+02  0.86674456662E+02  0.00000000000E+00 0.  1.
       14    1    4    4    0    0 -0.47144138860E+02  0.71314555815E+01  0.56995144703E+02  0.74309313059E+02  0.00000000000E+00 0. -1.
       -5    1    5    5    0  501 -0.61902725370E+02  0.77145408676E+02  0.16465386372E+03  0.19213627020E+03  0.47000000000E+01 0.  1.
        3    1    6    6  503    0 -0.20550116869E+01 -0.27913092968E+02  0.16493169756E+01  0.28037190989E+02  0.00000000000E+00 0. -1.
       -4    1    6    6    0  503  0.17708633711E+02  0.12577563826E+02  0.12934279288E+03  0.13115391298E+03  0.00000000000E+00 0.  1.
</event>
<event>
12   0  0.1544783E-01  0.2738504E+03  0.7957747E-01  0.1106917E+00
       21   -1    0    0  504  503  0.00000000000E+00  0.00000000000E+00  0.28502045315E+03  0.28502045315E+03  0.00000000000E+00 0.  1.
       21   -1    0    0  501  504  0.00000000000E+00  0.00000000000E+00 -0.26683287480E+03  0.26683287480E+03  0.00000000000E+00 0. -1.
        6    2    1    2  501    0 -0.98284620832E+02  0.18716517913E+03 -0.25017009330E+02  0.27499068501E+03  0.17407858891E+03 0.  0.
       24    2    3    3    0    0  0.15895058222E+02  0.61582986043E+02  0.13600799267E+01  0.10316016628E+03  0.81209931926E+02 0.  0.
       -6    2    1    2    0  503  0.98284620832E+02 -0.18716517913E+03  0.43204587674E+02  0.27686264294E+03  0.17348087989E+03 0.  0.
      -24    2    5    5    0    0  0.13680932555E+03 -0.16330157664E+03  0.37776689087E+02  0.23098044072E+03  0.80874527925E+02 0.  0.
        5    1    3    3  501    0 -0.11417967905E+03  0.12558219309E+03 -0.26377089257E+02  0.17183051873E+03  0.47000000000E+01 0. -1.
        2    1    4    4  502    0  0.48404398300E+02  0.45316302200E+02 -0.39421537623E+01  0.66423592165E+02  0.00000000000E+00 0. -1.
       -1    1    4    4    0  502 -0.32509340077E+02  0.16266683843E+02  0.53022336890E+01  0.36736574114E+02  0.00000000000E+00 0.  1.
       -5    1    5    5    0  503 -0.38524704715E+02 -0.23863602489E+02  0.54278985863E+01  0.45882202217E+02  0.47000000000E+01 0.  1.
       13    1    6    6    0    0  0.89423260251E+02 -0.46481371233E+02  0.59376389270E+01  0.10095688635E+03  0.00000000000E+00 0. -1.
      -14    1    6    6    0    0  0.47386065297E+02 -0.11682020541E+03  0.31839050160E+02  0.13002355437E+03  0.00000000000E+00 0.  1.
</event>
<event>
12   0  0.1544783E-01  0.2135263E+03  0.7957747E-01  0.1145411E+00
       21   -1    0    0  504  503  0.00000000000E+00  0.00000000000E+00  0.18180752089E+03  0.18180752089E+03  0.00000000000E+00 0. -1.
       21   -1    0    0  501  504  0.00000000000E+00  0.00000000000E+00 -0.26219617133E+03  0.26219617133E+03  0.00000000000E+00 0. -1.
        6    2    1    2  501    0  0.12181881920E+03  0.17432338420E+02 -0.89746493001E+02  0.23162015816E+03  0.17449857742E+03 0.  0.
       24    2    3    3    0    0  0.25907309840E+02  0.62899848496E+02 -0.27194994495E+02  0.10832744926E+03  0.79797800060E+02 0.  0.
       -6    2    1    2    0  503 -0.12181881920E+03 -0.17432338420E+02  0.93578425550E+01  0.21238353407E+03  0.17284526372E+03 0.  0.
      -24    2    5    5    0    0 -0.22919643471E+02  0.11061991022E+01  0.56666722055E+02  0.10109586892E+03  0.80515362456E+02 0.  0.
        5    1    3    3  501    0  0.95911509362E+02 -0.45467510075E+02 -0.62551498506E+02  0.12329270889E+03  0.47000000000E+01 0. -1.
      -13    1    4    4    0    0 -0.25840927517E+02  0.38617530999E+01 -0.37593835287E+01  0.26396962637E+02  0.00000000000E+00 0.  1.
       14    1    4    4    0    0  0.51748237357E+02  0.59038095396E+02 -0.23435610967E+02  0.81930486627E+02  0.00000000000E+00 0. -1.
       -5    1    5    5    0  503 -0.98899175731E+02 -0.18538537523E+02 -0.47308879500E+02  0.11128766514E+03  0.47000000000E+01 0.  1.
        1    1    6    6  502    0 -0.29788058212E+02 -0.25891051846E+02  0.17364195526E+01  0.39505570881E+02  0.00000000000E+00 0. -1.
       -2    1    6    6    0  502  0.68684147411E+01  0.26997250948E+02  0.54930302502E+02  0.61590298041E+02  0.00000000000E+00 0.  1.
</event>
<event>
12   0  0.1544783E-01  0.1905302E+03  0.7957747E-01  0.1163948E+00
        2   -1    0    0  502    0  0.00000000000E+00  0.00000000000E+00  0.31644546961E+03  0.31644546961E+03  0.00000000000E+00 0.  1.
       -2   -1    0    0    0  501  0.00000000000E+00  0.00000000000E+00 -0.12389988602E+03  0.12389988602E+03  0.00000000000E+00 0. -1.
        6    2    1    2  502    0 -0.27500605679E+02 -0.70513513071E+02  0.35598663946E+02  0.19222825477E+03  0.17307801195E+03 0.  0.
       24    2    3    3    0    0  0.16535733260E+02 -0.34958728793E+01  0.66358143950E+02  0.10621198390E+03  0.81190705470E+02 0.  0.
       -6    2    1    2    0  501  0.27500605679E+02  0.70513513071E+02  0.15694691964E+03  0.24811710085E+03  0.17663895751E+03 0.  0.
      -24    2    5    5    0    0  0.34420719739E+02 -0.20532602740E+02  0.12103677633E+03  0.14988822742E+03  0.78804858812E+02 0.  0.
        5    1    3    3  502    0 -0.44036338938E+02 -0.67017640192E+02 -0.30759480005E+02  0.86016270869E+02  0.47000000000E+01 0. -1.
      -13    1    4    4    0    0 -0.28502475407E+02  0.15077237021E+02  0.15470711339E+02  0.35763907642E+02  0.00000000000E+00 0.  1.
       14    1    4    4    0    0  0.45038208667E+02 -0.18573109900E+02  0.50887432611E+02  0.70448076262E+02  0.00000000000E+00 0. -1.
       -5    1    5    5    0  501 -0.69201140605E+01  0.91046115812E+02  0.35910143316E+02  0.98228873433E+02  0.47000000000E+01 0.  1.
        3    1    6    6  503    0  0.20750108191E+02  0.77353866806E+01 -0.26269256971E+01  0.22300312457E+02  0.00000000000E+00 0. -1.
       -4    1    6    6    0  503  0.13670611548E+02 -0.28267989421E+02  0.12366370202E+03  0.12758791496E+03  0.00000000000E+00 0.  1.
</event>
<event>
12   0  0.1544783E-01  0.2074178E+03  0.7957747E-01  0.1150077E+00
       21   -1    0    0  501  503  0.00000000000E+00  0.00000000000E+00  0.42357973999E+03  0.42357973999E+03  0.00000000000E+00 0.  1.
       21   -1    0    0  503  504  0.00000000000E+00  0.00000000000E+00 -0.10115703938E+03  0.10115703938E+03  0.00000000000E+00 0.  1.
        6    2    1    2  501    0  0.15375046764E+02  0.11328472710E+03  0.15380583654E+03  0.25742837763E+03  0.17188168257E+03 0.  0.
       24    2    3    3    0    0 -0.37350136263E+02  0.21950654654E+02  0.10947535141E+03  0.14293322653E+03  0.81044375266E+02 0.  0.
       -6    2    1    2    0  504 -0.15375046764E+02 -0.11328472710E+03  0.16861686408E+03  0.26730840174E+03  0.17306736646E+03 0.  0.
      -24    2    5    5    0    0  0.58506816554E+02 -0.55424245672E+02  0.87905186888E+02  0.14344222447E+03  0.79708564698E+02 0.  0.
        5    1    3    3  501    0  0.52725183027E+02  0.91334072444E+02  0.44330485128E+02  0.11449515110E+03  0.47000000000E+01 0. -1.
        2    1    4    4  502    0 -0.57519409443E+02  0.20823155581E+02  0.46622426718E+02  0.76913828043E+02  0.00000000000E+00 0. -1.
       -1    1    4    4    0  502  0.20169273181E+02  0.11274990728E+01  0.62852924689E+02  0.66019398488E+02  0.00000000000E+00 0.  1.
       -5    1    5    5    0  504 -0.73881863318E+02 -0.57860481425E+02  0.80711677189E+02  0.12386617728E+03  0.47000000000E+01 0.  1.
       13    1    6    6    0    0 -0.29144110121E+01  0.17435858359E+02  0.18219367211E+02  0.25385986091E+02  0.00000000000E+00 0. -1.
      -14    1    6    6    0    0  0.61421227566E+02 -0.72860104031E+02  0.69685819677E+02  0.11805623837E+03  0.00000000000E+00 0.  1.
</event>
<event>
12   0  0.1544783E-01  0.2802436E+03  0.7957747E-01  0.1103478E+00
       -2   -1    0    0    0  501  0.00000000000E+00  0.00000000000E+00  0.14066847560E+03  0.14066847560E+03  0.00000000000E+00 0. -1.
        2   -1    0    0  502    0  0.00000000000E+00  0.00000000000E+00 -0.56476113489E+03  0.56476113489E+03  0.00000000000E+00 0.  1.
        6    2    1    2  502    0  0.12991329688E+03  0.17830076278E+03 -0.24963696615E+03  0.37519800607E+03  0.17258708577E+03 0.  0.
       24    2    3    3    0    0  0.14180303915E+03  0.95475559670E+02 -0.21034866364E+03  0.28263969496E+03  0.80093398385E+02 0.  0.
       -6    2    1    2    0  501 -0.12991329688E+03 -0.17830076278E+03 -0.17445569314E+03  0.33023160442E+03  0.17305922968E+03 0.  0.
      -24    2    5    5    0    0 -0.64070784131E+02 -0.14560028253E+03 -0.41419905493E+02  0.17816198652E+03  0.68713733845E+02 0.  0.
        5    1    3    3  502    0 -0.11889742268E+02  0.82825203110E+02 -0.39288302509E+02  0.92558311110E+02  0.47000000000E+01 0. -1.
        2    1    4    4  503    0  0.50567958619E+02  0.24731897194E+02 -0.13091165543E+03  0.14250139194E+03  0.00000000000E+00 0. -1.
       -1    1    4    4    0  503  0.91235080533E+02  0.70743662476E+02 -0.79437008220E+02  0.14013830303E+03  0.00000000000E+00 0.  1.
       -5    1    5    5    0  501 -0.65842512754E+02 -0.32700480248E+02 -0.13303578764E+03  0.15206961790E+03  0.47000000000E+01 0.  1.
       11    1    6    6    0    0 -0.38156266073E+01 -0.58287759350E+02  0.11618231328E+02  0.59556739297E+02  0.00000000000E+00 0. -1.
      -12    1    6    6    0    0 -0.60255157524E+02 -0.87312523181E+02 -0.53038136821E+02  0.11860524723E+03  0.00000000000E+00 0.  1.
</event>
<event>
12   0  0.1544783E-01  0.2007985E+03  0.7957747E-01  0.1155335E+00
       21   -1    0    0  504  503  0.00000000000E+00  0.00000000000E+00  0.11125774304E+04  0.11125774304E+04  0.00000000000E+00 0. -1.
       21   -1    0    0  501  504  0.00000000000E+00  0.00000000000E+00 -0.64913791018E+02  0.64913791018E+02  0.00000000000E+00 0. -1.
        6    2    1    2  501    0  0.92094091049E+02  0.43183118816E+02  0.13234385586E+03  0.24048896862E+03  0.17312984863E+03 0.  0.
       24    2    3    3    0    0  0.11980441687E+03  0.64627420048E+02  0.12872327546E+03  0.20495139956E+03  0.83099896569E+02 0.  0.
       -6    2    1    2    0  503 -0.92094091049E+02 -0.43183118816E+02  0.91531978356E+03  0.93700225284E+03  0.17267545364E+03 0.  0.
      -24    2    5    5    0    0 -0.27943592943E+02 -0.86783223027E+02  0.50050251815E+03  0.51496942334E+03  0.79865913328E+02 0.  0.
        5    1    3    3  501    0 -0.27710325821E+02 -0.21444301233E+02  0.36205803954E+01  0.35537569063E+02  0.47000000000E+01 0. -1.
      -13    1    4    4    0    0 -0.90550015169E+01 -0.93092586153E+00  0.26134773481E+02  0.27674646526E+02  0.00000000000E+00 0.  1.
       14    1    4    4    0    0  0.12885941839E+03  0.65558345910E+02  0.10258850198E+03  0.17727675303E+03  0.00000000000E+00 0. -1.
       -5    1    5    5    0  503 -0.64150498106E+02  0.43600104211E+02  0.41481726541E+03  0.42203282950E+03  0.47000000000E+01 0.  1.
        1    1    6    6  502    0 -0.27776768198E+02  0.59408398688E+01  0.10979998372E+03  0.11341463246E+03  0.00000000000E+00 0. -1.
       -2    1    6    6    0  502 -0.16682474489E+00 -0.92724062896E+02  0.39070253443E+03  0.40155479088E+03  0.00000000000E+00 0.  1.
</event>
<event>
12   0  0.1544783E-01  0.1912457E+03  0.7957747E-01  0.1163329E+00
       -1   -1    0    0    0  501  0.00000000000E+00  0.00000000000E+00  0.55346744871E+02  0.55346744871E+02  0.00000000000E+00 0. -1.
        1   -1    0    0  502    0  0.00000000000E+00  0.00000000000E+00 -0.68221593871E+03  0.68221593871E+03  0.00000000000E+00 0.  1.
        6    2    1    2  502    0 -0.13541411199E+02  0.80467987161E+02 -0.24800100514E+03  0.31312118090E+03  0.17286384411E+03 0.  0.
       24    2    3    3    0    0  0.33767158968E+02  0.10404118435E+03 -0.19397831152E+03  0.23739576995E+03  0.82245833841E+02 0.  0.
       -6    2    1    2    0  501  0.13541411199E+02 -0.80467987161E+02 -0.37886818869E+03  0.42444150268E+03  0.17306362420E+03 0.  0.
      -24    2    5    5    0    0  0.12788371967E+02  0.24578985304E+02 -0.14816544730E+03  0.17090397414E+03  0.80545016156E+02 0.  0.
        5    1    3    3  502    0 -0.47308570166E+02 -0.23573197187E+02 -0.54022693622E+02  0.75725410946E+02  0.47000000000E+01 0. -1.
      -13    1    4    4    0    0 -0.25816988916E+02  0.47263650275E+02 -0.65240100626E+02  0.84596928334E+02  0.00000000000E+00 0.  1.
       14    1    4    4    0    0  0.59584147884E+02  0.56777534073E+02 -0.12873821090E+03  0.15279884162E+03  0.00000000000E+00 0. -1.
       -5    1    5    5    0  501  0.75303923180E+00 -0.10504697246E+03 -0.23070274139E+03  0.25353752854E+03  0.47000000000E+01 0.  1.
        1    1    6    6  503    0  0.34461165911E+02  0.16448872877E+01 -0.22151941729E+02  0.40999830884E+02  0.00000000000E+00 0. -1.
       -2    1    6    6    0  503 -0.21672793945E+02  0.22934098016E+02 -0.12601350557E+03  0.12990414326E+03  0.00000000000E+00 0.  1.
</event>
<event>
12   0  0.1544783E-01  0.1735616E+03  0.7957747E-01  0.1179575E+00
       21   -1    0    0  501  503  0.00000000000E+00  0.00000000000E+00  0.84997869579E+02  0.84997869579E+02  0.00000000000E+00 0.  1.
       21   -1    0    0  503  504  0.00000000000E+00  0.00000000000E+00 -0.90499038105E+03  0.90499038105E+03  0.00000000000E+00 0.  1.
        6    2    1    2  501    0  0.22281537559E+00  0.11980416388E+01 -0.20464168927E+02  0.17183839655E+03  0.17061115840E+03 0.  0.
       24    2    3    3    0    0 -0.44832115565E+02 -0.33525927386E+02  0.22181906093E+02  0.10058898574E+03  0.80574193765E+02 0.  0.
       -6    2    1    2    0  504 -0.22281537559E+00 -0.11980416388E+01 -0.79952834255E+03  0.81814985408E+03  0.17355727655E+03 0.  0.
      -24    2    5    5    0    0 -0.42252701221E+02 -0.18947176555E+02 -0.24073943866E+03  0.25748179524E+03  0.78721733301E+02 0.  0.
        5    1    3    3  501    0  0.45054930940E+02  0.34723969025E+02 -0.42646075020E+02  0.71249410815E+02  0.47000000000E+01 0. -1.
      -13    1    4    4    0    0 -0.61906324461E+02 -0.45689185409E+02  0.20095173174E+02  0.79521762156E+02  0.00000000000E+00 0.  1.
       14    1    4    4    0    0  0.17074208897E+02  0.12163258023E+02  0.20867329191E+01  0.21067223582E+02  0.00000000000E+00 0. -1.
       -5    1    5    5    0  504  0.42029885846E+02  0.17749134916E+02 -0.55878890389E+03  0.56066805884E+03  0.47000000000E+01 0.  1.
        1    1    6    6  502    0 -0.29550414315E+02 -0.37616674298E+02 -0.22482175380E+03  0.22985443688E+03  0.00000000000E+00 0. -1.
       -2    1    6    6    0  502 -0.12702286906E+02  0.18669497744E+02 -0.15917684857E+02  0.27627358358E+02  0.00000000000E+00 0.  1.
</event>
<event>
12   0  0.1544783E-01  0.2565149E+03  0.7957747E-01  0.1116781E+00
       21   -1    0    0  504  503  0.00000000000E+00  0.00000000000E+00  0.10291780550E+03  0.10291780550E+03  0.00000000000E+00 0. -1.
       21   -1    0    0  501  504  0.00000000000E+00  0.00000000000E+00 -0.61563425448E+03  0.61563425448E+03  0.00000000000E+00 0.  1.
        6    2    1    2  501    0 -0.14327226352E+03  0.10504237713E+03 -0.22663477373E+03  0.34229114951E+03  0.18503801739E+03 0.  0.
       24    2    3    3    0    0  0.32427131930E+01  0.67344147947E+02 -0.85791338415E+02  0.13553825797E+03  0.80403458733E+02 0.  0.
       -6    2    1    2    0  503  0.14327226352E+03 -0.10504237713E+03 -0.28608167525E+03  0.37626091047E+03  0.16783535190E+03 0.  0.
      -24    2    5    5    0    0  0.11751709274E+03 -0.64061519843E+02 -0.10054382224E+03  0.18445594603E+03  0.77464768910E+02 0.  0.
        5    1    3    3  501    0 -0.14651497672E+03  0.37698229183E+02 -0.14084343531E+03  0.20675289153E+03  0.47000000000E+01 0. -1.
        4    1    4    4  502    0 -0.11246048762E+02  0.81449634175E+02 -0.79474765558E+02  0.11435363956E+03  0.00000000000E+00 0. -1.
       -3    1    4    4    0  502  0.14488761956E+02 -0.14105486228E+02 -0.63165728570E+01  0.21184618415E+02  0.00000000000E+00 0.  1.
       -5    1    5    5    0  503  0.25755170780E+02 -0.40980857288E+02 -0.18553785301E+03  0.19180496445E+03  0.47000000000E+01 0.  1.
       11    1    6    6    0    0  0.14089225549E+02  0.70905560120E+01  0.87238821942E+01  0.18024660376E+02  0.00000000000E+00 0. -1.
      -12    1    6    6    0    0  0.10342786719E+03 -0.71152075855E+02 -0.10926770443E+03  0.16643128565E+03  0.00000000000E+00 0.  1.
</event>
<event>
12   0  0.1544783E-01  0.2569476E+03  0.7957747E-01  0.1116525E+00
        2   -1    0    0  502    0  0.00000000000E+00  0.00000000000E+00  0.30777937663E+03  0.30777937663E+03  0.00000000000E+00 0. -1.
       -2   -1    0    0    0  501  0.00000000000E+00  0.00000000000E+00 -0.21560004353E+03  0.21560004353E+03  0.00000000000E+00 0.  1.
        6    2    1    2  502    0  0.31015817018E+02 -0.18823544586E+03  0.27561376118E+02  0.25878946577E+03  0.17267829671E+03 0.  0.
       24    2    3    3    0    0  0.50830140026E+01 -0.61657999609E+02 -0.40282005516E+02  0.11277859424E+03  0.85257406741E+02 0.  0.
       -6    2    1    2    0  501 -0.31015817018E+02  0.18823544586E+03  0.64617956980E+02  0.26458995438E+03  0.17157447249E+03 0.  0.
      -24    2    5    5    0    0 -0.94873550343E+01  0.20952605848E+03  0.47969417346E+02  0.22971835085E+03  0.80487742124E+02 0.  0.
        5    1    3    3  502    0  0.25932803015E+02 -0.12657744626E+03  0.67843381633E+02  0.14601087153E+03  0.47000000000E+01 0. -1.
        2    1    4    4  503    0 -0.29500050118E+02 -0.52877996124E+02 -0.46774285471E+02  0.76512542844E+02  0.00000000000E+00 0. -1.
       -1    1    4    4    0  503  0.34583064121E+02 -0.87800034843E+01  0.64922799552E+01  0.36266051400E+02  0.00000000000E+00 0.  1.
       -5    1    5    5    0  501 -0.21528461984E+02 -0.21290612612E+02  0.16648539633E+02  0.34871603529E+02  0.47000000000E+01 0.  1.
       11    1    6    6    0    0  0.13792012134E+02  0.13798986391E+03 -0.32381664776E+01  0.13871520415E+03  0.00000000000E+00 0. -1.
      -12    1    6    6    0    0 -0.23279367168E+02  0.71536194569E+02  0.51207583824E+02  0.91003146705E+02  0.00000000000E+00 0.  1.
</event>
<event>
12   0  0.1544783E-01  0.1910359E+03  0.7957747E-01  0.1163510E+00
       21   -1    0    0  501  503  0.00000000000E+00  0.00000000000E+00  0.80819108220E+03  0.80819108220E+03  0.00000000000E+00 0.  1.
       21   -1    0    0  503  504  0.00000000000E+00  0.00000000000E+00 -0.45207323548E+02  0.45207323548E+02  0.00000000000E+00 0.  1.
        6    2    1    2  501    0 -0.42679149587E+02 -0.67265763591E+02  0.42704542304E+03  0.46694105144E+03  0.17123071986E+03 0.  0.
       24    2    3    3    0    0 -0.76795527952E+02 -0.89525894276E+02  0.37025580084E+03  0.39689398241E+03  0.80765316555E+02 0.  0.
       -6    2    1    2    0  504  0.42679149587E+02  0.67265763591E+02  0.33593833562E+03  0.38645735431E+03  0.17363331650E+03 0.  0.
      -24    2    5    5    0    0  0.39234804409E+02  0.18376078028E+02  0.32338565715E+03  0.33564668018E+03  0.78761415355E+02 0.  0.
        5    1    3    3  501    0  0.34116378365E+02  0.22260130686E+02  0.56789622200E+02  0.70047069036E+02  0.47000000000E+01 0. -1.
      -11    1    4    4    0    0  0.93245898927E+01 -0.41416966845E+02  0.84018790097E+02  0.94135382342E+02  0.00000000000E+00 0.  1.
       12    1    4    4    0    0 -0.86120117844E+02 -0.48108927432E+02  0.28623701074E+03  0.30275860007E+03  0.00000000000E+00 0. -1.
       -5    1    5    5    0  504  0.34443451774E+01  0.48889685563E+02  0.12552678471E+02  0.50810674124E+02  0.47000000000E+01 0.  1.
        3    1    6    6  502    0 -0.21471303954E+02  0.94308934045E+01  0.46931605023E+02  0.52464599436E+02  0.00000000000E+00 0. -1.
       -4    1    6    6    0  502  0.60706108364E+02  0.89451846231E+01  0.27645405212E+03  0.28318208075E+03  0.00000000000E+00 0.  1.
</event>
<event>
12   0  0.1544783E-01  0.2233321E+03  0.7957747E-01  0.1138268E+00
       21   -1    0    0  504  503  0.00000000000E+00  0.00000000000E+00  0.46428373642E+02  0.46428373642E+02  0.00000000000E+00 0.  1.
       21   -1    0    0  501  504  0.00000000000E+00  0.00000000000E+00 -0.11117216702E+04  0.11117216702E+04  0.00000000000E+00 0. -1.
        6    2    1    2  501    0 -0.61691902953E+02  0.12669972111E+03 -0.64084452253E+03  0.67853147913E+03  0.17281364498E+03 0.  0.
       24    2    3    3    0    0 -0.62840650581E+02  0.39989842160E+02 -0.18876095147E+03  0.21818208144E+03  0.80153534045E+02 0.  0.
       -6    2    1    2    0  503  0.61691902953E+02 -0.12669972111E+03 -0.42444877407E+03  0.47961856476E+03  0.17325846482E+03 0.  0.
      -24    2    5    5    0    0  0.25973819547E+02 -0.28013701421E+02 -0.76272962122E+02  0.11593848833E+03  0.78515995545E+02 0.  0.
        5    1    3    3  501    0  0.11487476277E+01  0.86709878947E+02 -0.45208357107E+03  0.46034939769E+03  0.47000000000E+01 0. -1.
      -13    1    4    4    0    0 -0.26176640202E+01  0.35766814669E+02 -0.25188394682E+02  0.43824335969E+02  0.00000000000E+00 0.  1.
       14    1    4    4    0    0 -0.60222986560E+02  0.42230274916E+01 -0.16357255678E+03  0.17435774547E+03  0.00000000000E+00 0. -1.
       -5    1    5    5    0  503  0.35718083406E+02 -0.98686019686E+02 -0.34817581195E+03  0.36368007643E+03  0.47000000000E+01 0.  1.
        3    1    6    6  502    0 -0.11533681954E+02  0.21536598519E+02 -0.15008735879E+02  0.28672513804E+02  0.00000000000E+00 0. -1.
       -4    1    6    6    0  502  0.37507501501E+02 -0.49550299940E+02 -0.61264226243E+02  0.87265974526E+02  0.00000000000E+00 0.  1.
</event>
<event>
12   0  0.1544783E-01  0.4045865E+03  0.7957747E-01  0.1051490E+00
       -2   -1    0    0    0  501  0.00000000000E+00  0.00000000000E+00  0.32625129085E+03  0.32625129085E+03  0.00000000000E+00 0.  1.
        2   -1    0    0  502    0  0.00000000000E+00  0.00000000000E+00 -0.77596197316E+03  0.77596197316E+03  0.00000000000E+00 0. -1.
        6    2    1    2  502    0  0.14287253415E+03  0.33751801669E+03  0.10309932180E+03  0.41661631550E+03  0.16914109962E+03 0.  0.
       24    2    3    3    0    0  0.12156598254E+03  0.33832885820E+03  0.74626147392E+02  0.38073542552E+03  0.10072585550E+03 0.  0.
       -6    2    1    2    0  501 -0.14287253415E+03 -0.33751801669E+03 -0.55281000411E+03  0.68559694851E+03  0.17353184883E+03 0.  0.
      -24    2    5    5    0    0 -0.16302034334E+03 -0.19688221622E+03 -0.33322011375E+03  0.42401298008E+03  0.58421945095E+02 0.  0.
        5    1    3    3  502    0  0.21306551606E+02 -0.81084150829E+00  0.28473174406E+02  0.35880889984E+02  0.47000000000E+01 0. -1.
      -11    1    4    4    0    0  0.12191607532E+03  0.25520756610E+03  0.88731946244E+02  0.29642501497E+03  0.00000000000E+00 0.  1.
       12    1    4    4    0    0 -0.35009277430E+00  0.83121292102E+02 -0.14105798853E+02  0.84310410549E+02  0.00000000000E+00 0. -1.
       -5    1    5    5    0  501  0.20147809186E+02 -0.14063580047E+03 -0.21958989037E+03  0.26158396843E+03  0.47000000000E+01 0.  1.
        3    1    6    6  503    0 -0.18814821297E+02 -0.35873843575E+02 -0.89587929993E+02  0.98320533734E+02  0.00000000000E+00 0. -1.
       -4    1    6    6    0  503 -0.14420552204E+03 -0.16100837265E+03 -0.24363218375E+03  0.32569244635E+03  0.00000000000E+00 0.  1.
</event>
<event>
12   0  0.1544783E-01  0.2396973E+03  0.7957747E-01  0.1127197E+00
       21   -1    0    0  504  503  0.00000000000E+00  0.00000000000E+00  0.15842810777E+03  0.15842810777E+03  0.00000000000E+00 0. -1.
       21   -1    0    0  501  504  0.00000000000E+00  0.00000000000E+00 -0.52467175287E+03  0.52467175287E+03  0.00000000000E+00 0.  1.
        6    2    1    2  501    0  0.16541586753E+03  0.10495436639E+02 -0.37433204754E+03  0.44449888827E+03  0.17315373643E+03 0.  0.
       24    2    3    3    0    0  0.12948260487E+03 -0.38957523568E+02 -0.34499281966E+03  0.37653069769E+03  0.66872169674E+02 0.  0.
       -6    2    1    2    0  503 -0.16541586753E+03 -0.10495436639E+02  0.80884024402E+01  0.23860097237E+03  0.17144223033E+03 0.  0.
      -24    2    5    5    0    0 -0.18206433674E+02 -0.16908687332E+02  0.29202806241E+02  0.89672616280E+02  0.81061681969E+02 0.  0.
        5    1    3    3  501    0  0.35933262660E+02  0.49452960207E+02 -0.29339227872E+02  0.67968190580E+02  0.47000000000E+01 0. -1.
        4    1    4    4  502    0  0.37600882723E+02  0.13338228361E+02 -0.55615308741E+02  0.68445578993E+02  0.00000000000E+00 0. -1.
       -3    1    4    4    0  502  0.91881722146E+02 -0.52295751929E+02 -0.28937751092E+03  0.30808511870E+03  0.00000000000E+00 0.  1.
       -5    1    5    5    0  503 -0.14720943385E+03  0.64132506935E+01 -0.21114403801E+02  0.14892835609E+03  0.47000000000E+01 0.  1.
       13    1    6    6    0    0 -0.38891257683E+02 -0.23553275373E+02  0.44091108716E+02  0.63334923800E+02  0.00000000000E+00 0. -1.
      -14    1    6    6    0    0  0.20684824010E+02  0.66445880412E+01 -0.14888302474E+02  0.26337692479E+02  0.00000000000E+00 0.  1.
</event>
<event>
12   0  0.1544783E-01  0.2605273E+03  0.7957747E-01  0.1114424E+00
       21   -1    0    0  501  503  0.00000000000E+00  0.00000000000E+00  0.29384155947E+03  0.29384155947E+03  0.00000000000E+00 0. -1.
       21   -1    0    0  503  504  0.00000000000E+00  0.00000000000E+00 -0.31193947357E+03  0.31193947357E+03  0.00000000000E+00 0.  1.
        6    2    1    2  501    0 -0.38568304171E+02 -0.19007881669E+03  0.14913305059E+03  0.29619955312E+03  0.16696118665E+03 0.  0.
       24    2    3    3    0    0 -0.79810381012E+02 -0.12836338001E+03  0.64947668854E+02  0.18386535296E+03  0.82106114785E+02 0.  0.
       -6    2    1    2    0  504  0.38568304171E+02  0.19007881669E+03 -0.16723096468E+03  0.30958147993E+03  0.17394546997E+03 0.  0.
      -24    2    5    5    0    0  0.41010622036E+02  0.14327366190E+03 -0.40483656927E+02  0.17436440461E+03  0.80961755202E+02 0.  0.
        5    1    3    3  501    0  0.41242076841E+02 -0.61715436680E+02  0.84185381734E+02  0.11233420016E+03  0.47000000000E+01 0. -1.
      -13    1    4    4    0    0 -0.53539335378E+02 -0.73785583829E+02 -0.50445004907E+01  0.91302901372E+02  0.00000000000E+00 0.  1.
       14    1    4    4    0    0 -0.26271045634E+02 -0.54577796184E+02  0.69992169345E+02  0.92562451592E+02  0.00000000000E+00 0. -1.
       -5    1    5    5    0  504 -0.24423178653E+01  0.46805154798E+02 -0.12674730776E+03  0.13521707531E+03  0.47000000000E+01 0.  1.
        3    1    6    6  502    0  0.60462361537E+02  0.13089563353E+03 -0.44638393638E+02  0.15093690810E+03  0.00000000000E+00 0. -1.
       -4    1    6    6    0  502 -0.19451739501E+02  0.12378028366E+02  0.41547367108E+01  0.23427496515E+02  0.00000000000E+00 0.  1.
</event>
<event>
12   0  0.1544783E-01  0.3265536E+03  0.7957747E-01  0.1081214E+00
       21   -1    0    0  501  503  0.00000000000E+00  0.00000000000E+00  0.52565541930E+03  0.52565541930E+03  0.00000000000E+00 0. -1.
       21   -1    0    0  503  504  0.00000000000E+00  0.00000000000E+00 -0.22260573039E+03  0.22260573039E+03  0.00000000000E+00 0.  1.
        6    2    1    2  501    0 -0.53967487281E+02 -0.26933885668E+03  0.26758712931E+03  0.42218493543E+03  0.17658238454E+03 0.  0.
       24    2    3    3    0    0 -0.19829791959E+02 -0.19852355446E+03  0.99464297350E+02  0.23653050942E+03  0.79048802104E+02 0.  0.
       -6    2    1    2    0  504  0.53967487281E+02  0.26933885668E+03  0.35462559596E+02  0.32607621426E+03  0.17208194260E+03 0.  0.
      -24    2    5    5    0    0  0.98100843487E+02  0.18461015764E+03 -0.40225280388E+00  0.22392397326E+03  0.80231528705E+02 0.  0.
        5    1    3    3  501    0 -0.34137695322E+02 -0.70815302219E+02  0.16812283196E+03  0.18565442601E+03  0.47000000000E+01 0. -1.
        2    1    4    4  502    0  0.21440502604E+02 -0.13896124914E+03  0.78787844579E+02  0.16117521015E+03  0.00000000000E+00 0. -1.
       -1    1    4    4    0  502 -0.41270294562E+02 -0.59562305322E+02  0.20676452771E+02  0.75355299268E+02  0.00000000000E+00 0.  1.
       -5    1    5    5    0  504 -0.44133356207E+02  0.84728699041E+02  0.35864812400E+02  0.10215224099E+03  0.47000000000E+01 0.  1.
       11    1    6    6    0    0  0.15761207714E+02  0.13089382719E+02 -0.24729901035E+02  0.32114103035E+02  0.00000000000E+00 0. -1.
      -12    1    6    6    0    0  0.82339635773E+02  0.17152077492E+03  0.24327648231E+02  0.19180987023E+03  0.00000000000E+00 0.  1.
</event>
<event>
12   0  0.1544783E-01  0.3913954E+03  0.7957747E-01  0.1055981E+00
       -2   -1    0    0    0  501  0.00000000000E+00  0.00000000000E+00  0.17946248921E+03  0.17946248921E+03  0.00000000000E+00 0.  1.
        2   -1    0    0  502    0  0.00000000000E+00  0.00000000000E+00 -0.93842825162E+03  0.93842825162E+03  0.00000000000E+00 0. -1.
        6    2    1    2  502    0 -0.32768365093E+03 -0.12070469211E+03 -0.21043258131E+03  0.44336694481E+03  0.17420154618E+03 0.  0.
       24    2    3    3    0    0 -0.31884523327E+03 -0.66888097516E+02 -0.18239000230E+03  0.38186231313E+03  0.80102514858E+02 0.  0.
       -6    2    1    2    0  501  0.32768365093E+03  0.12070469211E+03 -0.54853318110E+03  0.67452379601E+03  0.17929724714E+03 0.  0.
      -24    2    5    5    0    0  0.21110389090E+03  0.84692713933E+02 -0.47390267274E+03  0.53141717212E+03  0.77992044793E+02 0.  0.
        5    1    3    3  502    0 -0.88384176679E+01 -0.53816594595E+02 -0.28042579013E+02  0.61504631682E+02  0.47000000000E+01 0. -1.
        2    1    4    4  503    0 -0.15991577792E+03  0.45497961627E+01 -0.10385855947E+03  0.19073635481E+03  0.00000000000E+00 0. -1.
       -1    1    4    4    0  503 -0.15892945535E+03 -0.71437893678E+02 -0.78531442822E+02  0.19112595832E+03  0.00000000000E+00 0.  1.
       -5    1    5    5    0  501  0.11657976004E+03  0.36011978178E+02 -0.74630508359E+02  0.14310662389E+03  0.47000000000E+01 0.  1.
       11    1    6    6    0    0  0.29420635279E+02  0.44311770480E+01 -0.19696489521E+02  0.35681379033E+02  0.00000000000E+00 0. -1.
      -12    1    6    6    0    0  0.18168325562E+03  0.80261536885E+02 -0.45420618322E+03  0.49573579309E+03  0.00000000000E+00 0.  1.
</event>
<event>
12   0  0.1544783E-01  0.1896690E+03  0.7957747E-01  0.1164697E+00
       -2   -1    0    0    0  501  0.00000000000E+00  0.00000000000E+00  0.27535966243E+03  0.27535966243E+03  0.00000000000E+00 0.  1.
        2   -1    0    0  502    0  0.00000000000E+00  0.00000000000E+00 -0.13375282489E+03  0.13375282489E+03  0.00000000000E+00 0. -1.
        6    2    1    2  502    0 -0.19252172782E+02 -0.75864354170E+02  0.39546545319E+02  0.19354372756E+03  0.17253752879E+03 0.  0.
       24    2    3    3    0    0  0.30588413919E+01 -0.33074712937E+02  0.89103449899E+02  0.12421327580E+03  0.79913828304E+02 0.  0.
       -6    2    1    2    0  501  0.19252172782E+02  0.75864354170E+02  0.10206029222E+03  0.21556875976E+03  0.17299578187E+03 0.  0.
      -24    2    5    5    0    0 -0.24893649105E+02  0.56624023584E+02 -0.79424017699E+00  0.10190175159E+03  0.80977542237E+02 0.  0.
        5    1    3    3  502    0 -0.22311014174E+02 -0.42789641233E+02 -0.49556904581E+02  0.69330451765E+02  0.47000000000E+01 0. -1.
      -11    1    4    4    0    0  0.28753529155E+02 -0.36576425345E+02  0.20442212718E+02  0.50818150209E+02  0.00000000000E+00 0.  1.
       12    1    4    4    0    0 -0.25694687763E+02  0.35017124080E+01  0.68661237182E+02  0.73395125590E+02  0.00000000000E+00 0. -1.
       -5    1    5    5    0  501  0.44145821888E+02  0.19240330586E+02  0.10285453240E+03  0.11366700817E+03  0.47000000000E+01 0.  1.
        3    1    6    6  503    0 -0.18870490533E+02 -0.17775516838E+02 -0.74203550741E+01  0.26965275472E+02  0.00000000000E+00 0. -1.
       -4    1    6    6    0  503 -0.60231585724E+01  0.74399540422E+02  0.66261148971E+01  0.74936476117E+02  0.00000000000E+00 0.  1.
</event>
<event>
12   0  0.1544783E-01  0.1913214E+03  0.7957747E-01  0.1163263E+00
       21   -1    0    0  504  503  0.00000000000E+00  0.00000000000E+00  0.85459311165E+02  0.85459311165E+02  0.00000000000E+00 0.  1.
       21   -1    0    0  501  504  0.00000000000E+00  0.00000000000E+00 -0.68857086295E+03  0.68857086295E+03  0.00000000000E+00 0.  1.
        6    2    1    2  501    0 -0.77646361355E+02 -0.16530005208E+02 -0.54020890225E+03  0.57263346381E+03  0.17257238278E+03 0.  0.
       24    2    3    3    0    0  0.43972317731E+01 -0.56176685881E+02 -0.30042153903E+03  0.31607337334E+03  0.80461919786E+02 0.  0.
       -6    2    1    2    0  503  0.77646361355E+02  0.16530005208E+02 -0.62902649540E+02  0.20139671031E+03  0.17407381510E+03 0.  0.
      -24    2    5    5    0    0  0.22506548146E+02  0.69199542543E+02 -0.62239853621E+02  0.12499639315E+03  0.80344119416E+02 0.  0.
        5    1    3    3  501    0 -0.82043593128E+02  0.39646680673E+02 -0.23978736322E+03  0.25656009047E+03  0.47000000000E+01 0. -1.
        4    1    4    4  502    0  0.18637930641E+02 -0.73306885353E+02 -0.22092888838E+03  0.23351840531E+03  0.00000000000E+00 0. -1.
       -3    1    4    4    0  502 -0.14240698868E+02  0.17130199472E+02 -0.79492650651E+02  0.82554968026E+02  0.00000000000E+00 0.  1.
       -5    1    5    5    0  503  0.55139813209E+02 -0.52669537335E+02 -0.66279591923E+00  0.76400317161E+02  0.47000000000E+01 0.  1.
       13    1    6    6    0    0  0.49126494360E+02  0.32713077993E+02 -0.52054554471E+02  0.78697106434E+02  0.00000000000E+00 0. -1.
      -14    1    6    6    0    0 -0.26619946214E+02  0.36486464550E+02 -0.10185299149E+02  0.46299286718E+02  0.00000000000E+00 0.  1.
</event>
<event>
12   0  0.1544783E-01  0.1863743E+03  0.7957747E-01  0.1167605E+00
       21   -1    0    0  504  503  0.00000000000E+00  0.00000000000E+00  0.60467727803E+03  0.60467727803E+03  0.00000000000E+00 0. -1.
       21   -1    0    0  501  504  0.00000000000E+00  0.00000000000E+00 -0.96364119955E+02  0.96364119955E+02  0.00000000000E+00 0. -1.
        6    2    1    2  501    0 -0.66971468381E+02 -0.81539862010E+01  0.28383137819E+02  0.18619365410E+03  0.17120399892E+03 0.  0.
       24    2    3    3    0    0 -0.80746793312E+02  0.41671110016E+02 -0.91732056076E+01  0.12212440468E+03  0.81078335435E+02 0.  0.
       -6    2    1    2    0  503  0.66971468381E+02  0.81539862010E+01  0.47993002026E+03  0.51484774389E+03  0.17373459635E+03 0.  0.
      -24    2    5    5    0    0  0.83384050100E+02 -0.48423444091E+02  0.33759513903E+03  0.36073192097E+03  0.82820958489E+02 0.  0.
        5    1    3    3  501    0  0.13775324931E+02 -0.49825096217E+02  0.37556343426E+02  0.64069249422E+02  0.47000000000E+01 0. -1.
        2    1    4    4  502    0 -0.78603025967E+02  0.16915692235E+02  0.20938378491E+02  0.83084246574E+02  0.00000000000E+00 0. -1.
       -1    1    4    4    0  502 -0.21437673457E+01  0.24755417781E+02 -0.30111584099E+02  0.39040158105E+02  0.00000000000E+00 0.  1.
       -5    1    5    5    0  503 -0.16412581719E+02  0.56577430292E+02  0.14233488124E+03  0.15411582292E+03  0.47000000000E+01 0.  1.
       11    1    6    6    0    0  0.52895742202E+02 -0.43142930503E+02  0.31527467704E+03  0.32257928325E+03  0.00000000000E+00 0. -1.
      -12    1    6    6    0    0  0.30488307898E+02 -0.52805135873E+01  0.22320461983E+02  0.38152637725E+02  0.00000000000E+00 0.  1.
</event>
<event>
12   0  0.1544783E-01  0.3398288E+03  0.7957747E-01  0.1075559E+00
       21   -1    0    0  501  503  0.00000000000E+00  0.00000000000E+00  0.91495374185E+03  0.91495374185E+03  0.00000000000E+00 0.  1.
       21   -1    0    0  503  504  0.00000000000E+00  0.00000000000E+00 -0.23869189289E+03  0.23869189289E+03  0.00000000000E+00 0. -1.
        6    2    1    2  501    0 -0.12760182600E+02 -0.29128593418E+03  0.73472121178E+03  0.80950533195E+03  0.17456604970E+03 0.  0.
       24    2    3    3    0    0  0.40359362771E+02 -0.22111769661E+03  0.42191114342E+03  0.48451687595E+03  0.78902954478E+02 0.  0.
       -6    2    1    2    0  504  0.12760182600E+02  0.29128593418E+03 -0.58459362825E+02  0.34414030279E+03  0.17321874377E+03 0.  0.
      -24    2    5    5    0    0  0.41231286650E+01  0.14179763801E+03 -0.97683974657E+02  0.18927904371E+03  0.78490936718E+02 0.  0.
        5    1    3    3  501    0 -0.53119545371E+02 -0.70168237568E+02  0.31281006836E+03  0.32498845600E+03  0.47000000000E+01 0. -1.
      -13    1    4    4    0    0 -0.33531406007E+01 -0.15204701359E+03  0.22785567085E+03  0.27394843426E+03  0.00000000000E+00 0.  1.
       14    1    4    4    0    0  0.43712503372E+02 -0.69070683014E+02  0.19405547257E+03  0.21056844170E+03  0.00000000000E+00 0. -1.
       -5    1    5    5    0  504  0.86370539346E+01  0.14948829617E+03  0.39224611832E+02  0.15486125908E+03  0.47000000000E+01 0.  1.
        3    1    6    6  502    0 -0.70155140091E+01  0.83277098928E+02 -0.11280315709E+02  0.84329936352E+02  0.00000000000E+00 0. -1.
       -4    1    6    6    0  502  0.11138642674E+02  0.58520539080E+02 -0.86403658948E+02  0.10494910735E+03  0.00000000000E+00 0.  1.
</event>
<event>
12   0  0.1544783E-01  0.2069223E+03  0.7957747E-01  0.1150463E+00
       21   -1    0    0  501  503  0.00000000000E+00  0.00000000000E+00  0.38800438369E+03  0.38800438369E+03  0.00000000000E+00 0. -1.
       21   -1    0    0  503  504  0.00000000000E+00  0.00000000000E+00 -0.12633345875E+03  0.12633345875E+03  0.00000000000E+00 0. -1.
        6    2    1    2  501    0 -0.60620731888E+02 -0.95546897459E+02  0.22485771823E+03  0.30557783194E+03  0.17324184016E+03 0.  0.
       24    2    3    3    0    0 -0.75675212681E+02 -0.73014329178E+02  0.75451323782E+02  0.15366102996E+03  0.82831031548E+02 0.  0.
       -6    2    1    2    0  504  0.60620731888E+02  0.95546897459E+02  0.36813206718E+02  0.20876001050E+03  0.17152681145E+03 0.  0.
      -24    2    5    5    0    0  0.31890240485E+02  0.37080375284E+02  0.84389667813E+02  0.12795540047E+03  0.82819241766E+02 0.  0.
        5    1    3    3  501    0  0.15054480792E+02 -0.22532568281E+02  0.14940639444E+03  0.15191680199E+03  0.47000000000E+01 0. -1.
        4    1    4    4  502    0 -0.80521584236E+02 -0.42709011441E+02  0.24839596313E+02  0.94471110563E+02  0.00000000000E+00 0. -1.
       -3    1    4    4    0  502  0.48463715547E+01 -0.30305317737E+02  0.50611727469E+02  0.59189919393E+02  0.00000000000E+00 0.  1.
       -5    1    5    5    0  504  0.28730491404E+02  0.58466522175E+02 -0.47576461095E+02  0.80804610028E+02  0.47000000000E+01 0.  1.
       13    1    6    6    0    0  0.20706877690E+02  0.87938599385E+01 -0.12961122263E+02  0.25963386655E+02  0.00000000000E+00 0. -1.
      -14    1    6    6    0    0  0.11183362794E+02  0.28286515346E+02  0.97350790076E+02  0.10199201382E+03  0.00000000000E+00 0.  1.
</event>
<event>
12   0  0.1544783E-01  0.2868141E+03  0.7957747E-01  0.1100045E+00
       21   -1    0    0  504  503  0.00000000000E+00  0.00000000000E+00  0.44231339798E+02  0.44231339798E+02  0.00000000000E+00 0. -1.
       21   -1    0    0  501  504  0.00000000000E+00  0.00000000000E+00 -0.18560663307E+04  0.18560663307E+04  0.00000000000E+00 0. -1.
        6    2    1    2  501    0  0.13287430610E+03  0.18562458611E+03 -0.87295794963E+03  0.91858874793E+03  0.17215585326E+03 0.  0.
       24    2    3    3    0    0  0.11161097181E+03  0.10415574061E+03 -0.37159317241E+03  0.41018139943E+03  0.82836388903E+02 0.  0.
       -6    2    1    2    0  503 -0.13287430610E+03 -0.18562458611E+03 -0.93887704123E+03  0.98170892253E+03  0.17363824990E+03 0.  0.
      -24    2    5    5    0    0 -0.71360031674E+02 -0.15413349410E+03 -0.44668727755E+03  0.48466913709E+03  0.80779083914E+02 0.  0.
        5    1    3    3  501    0  0.21263334293E+02  0.81468845499E+02 -0.50136477722E+03  0.50840734850E+03  0.47000000000E+01 0. -1.
      -13    1    4    4    0    0  0.49215473078E+02  0.14086218712E+02 -0.20111342148E+03  0.20752636615E+03  0.00000000000E+00 0.  1.
       14    1    4    4    0    0  0.62395498731E+02  0.90069521900E+02 -0.17047975093E+03  0.20265503328E+03  0.00000000000E+00 0. -1.
       -5    1    5    5    0  503 -0.61514274428E+02 -0.31491092008E+02 -0.49218976369E+03  0.49703978544E+03  0.47000000000E+01 0.  1.
        3    1    6    6  502    0 -0.38896402460E+02 -0.45592494429E+02 -0.25551255988E+03  0.26244670683E+03  0.00000000000E+00 0. -1.
       -4    1    6    6    0  502 -0.32463629214E+02 -0.10854099967E+03 -0.19117471767E+03  0.22222243025E+03  0.00000000000E+00 0.  1.
</event>
<event>
12   0  0.1544783E-01  0.2754449E+03  0.7957747E-01  0.1106050E+00
       21   -1    0    0  501  503  0.00000000000E+00  0.00000000000E+00  0.25855502863E+03  0.25855502863E+03  0.00000000000E+00 0. -1.
       21   -1    0    0  503  504  0.00000000000E+00  0.00000000000E+00 -0.60114646243E+03  0.60114646243E+03  0.00000000000E+00 0. -1.
        6    2    1    2  501    0 -0.20332634619E+03 -0.69847706038E+02  0.13649847636E+03  0.30741133640E+03  0.17219056479E+03 0.  0.
       24    2    3    3    0    0 -0.10095566094E+03  0.15779301813E+02  0.19131753481E+02  0.12962275602E+03  0.77427405006E+02 0.  0.
       -6    2    1    2    0  504  0.20332634619E+03  0.69847706038E+02 -0.47908991016E+03  0.55229015467E+03  0.17110513678E+03 0.  0.
      -24    2    5    5    0    0  0.19022627542E+03  0.10797156855E+03 -0.42077631023E+03  0.48124364396E+03  0.81846478982E+02 0.  0.
        5    1    3    3  501    0 -0.10237068526E+03 -0.85627007851E+02  0.11736672288E+03  0.17778858037E+03  0.47000000000E+01 0. -1.
        4    1    4    4  502    0 -0.76049256831E+02  0.20596948225E+02  0.47155426372E+02  0.91822426330E+02  0.00000000000E+00 0. -1.
       -3    1    4    4    0  502 -0.24906404107E+02 -0.48176464120E+01 -0.28023672890E+02  0.37800329691E+02  0.00000000000E+00 0.  1.
       -5    1    5    5    0  504  0.13100070770E+02 -0.38123862516E+02 -0.58313599929E+02  0.71046510710E+02  0.47000000000E+01 0.  1.
       13    1    6    6    0    0  0.12358095042E+03  0.30779243224E+02 -0.27802675585E+03  0.30580793006E+03  0.00000000000E+00 0. -1.
      -14    1    6    6    0    0  0.66645325001E+02  0.77192325331E+02 -0.14274955438E+03  0.17543571390E+03  0.00000000000E+00 0.  1.
</event>
<event>
12   0  0.1544783E-01  0.1921121E+03  0.7957747E-01  0.1162583E+00
       -2   -1    0    0    0  501  0.00000000000E+00  0.00000000000E+00  0.45678163801E+03  0.45678163801E+03  0.00000000000E+00 0.  1.
        2   -1    0    0  502    0  0.00000000000E+00  0.00000000000E+00 -0.90336939421E+02  0.90336939421E+02  0.00000000000E+00 0. -1.
        6    2    1    2  502    0 -0.33002648724E+02  0.76931847671E+02  0.94445719693E+02  0.21419497680E+03  0.17306591262E+03 0.  0.
       24    2    3    3    0    0 -0.27694916683E+02 -0.68192618265E+01 -0.18913928381E+01  0.86346044027E+02  0.81477304879E+02 0.  0.
       -6    2    1    2    0  501  0.33002648724E+02 -0.76931847671E+02  0.27199897889E+03  0.33292360062E+03  0.17276282970E+03 0.  0.
      -24    2    5    5    0    0 -0.36371831890E+01 -0.17968054349E+02  0.48388767990E+02  0.98738155676E+02  0.84093224698E+02 0.  0.
        5    1    3    3  502    0 -0.53077320418E+01  0.83751109498E+02  0.96337112531E+02  0.12784893278E+03  0.47000000000E+01 0. -1.
        2    1    4    4  503    0 -0.20137110730E+02  0.24301818765E+02 -0.30141123796E+02  0.43641367618E+02  0.00000000000E+00 0. -1.
       -1    1    4    4    0  503 -0.75578059523E+01 -0.31121080592E+02  0.28249730958E+02  0.42704676409E+02  0.00000000000E+00 0.  1.
       -5    1    5    5    0  501  0.36639831913E+02 -0.58963793323E+02  0.22361021090E+03  0.23418544495E+03  0.47000000000E+01 0.  1.
       13    1    6    6    0    0  0.23931362883E+02 -0.50170429628E+01 -0.14806714836E+02  0.28585304857E+02  0.00000000000E+00 0. -1.
      -14    1    6    6    0    0 -0.27568546072E+02 -0.12951011386E+02  0.63195482826E+02  0.70152850819E+02  0.00000000000E+00 0.  1.
</event>
<event>
12   0  0.1544783E-01  0.1903216E+03  0.7957747E-01  0.1164129E+00
       21   -1    0    0  501  503  0.00000000000E+00  0.00000000000E+00  0.58549018506E+03  0.58549018506E+03  0.00000000000E+00 0. -1.
       21   -1    0    0  503  504  0.00000000000E+00  0.00000000000E+00 -0.62363753948E+02  0.62363753948E+02  0.00000000000E+00 0.  1.
        6    2    1    2  501    0  0.64845297843E+02  0.46626901557E+02  0.23029590849E+03  0.29876161751E+03  0.17275218675E+03 0.  0.
       24    2    3    3    0    0  0.52757005022E+02  0.11057602510E+02  0.50827125113E+02  0.11534287238E+03  0.88402541866E+02 0.  0.
       -6    2    1    2    0  504 -0.64845297843E+02 -0.46626901557E+02  0.29283052261E+03  0.34909232149E+03  0.17244347872E+03 0.  0.
      -24    2    5    5    0    0  0.25161404592E+02 -0.50110517035E+02  0.11484841704E+03  0.14956021389E+03  0.77678429980E+02 0.  0.
        5    1    3    3  501    0  0.12088292821E+02  0.35569299048E+02  0.17946878338E+03  0.18341874513E+03  0.47000000000E+01 0. -1.
        4    1    4    4  502    0  0.26210718413E+02  0.48371436429E+02  0.14512618100E+02  0.56898275071E+02  0.00000000000E+00 0. -1.
       -3    1    4    4    0  502  0.26546286609E+02 -0.37313833919E+02  0.36314507013E+02  0.58444597305E+02  0.00000000000E+00 0.  1.
       -5    1    5    5    0  504 -0.90006702435E+02  0.34836154775E+01  0.17798210558E+03  0.19953210761E+03  0.47000000000E+01 0.  1.
       11    1    6    6    0    0  0.32005078607E+02 -0.12623131047E+02  0.10458031997E+03  0.11009410438E+03  0.00000000000E+00 0. -1.
      -12    1    6    6    0    0 -0.68436740145E+01 -0.37487385988E+02  0.10268097062E+02  0.39466109505E+02  0.00000000000E+00 0.  1.
</event>
<event>
12   0  0.1544783E-01  0.1798176E+03  0.7957747E-01  0.1173593E+00
        1   -1    0    0  502    0  0.00000000000E+00  0.00000000000E+00  0.47589426984E+03  0.47589426984E+03  0.00000000000E+00 0. -1.
       -1   -1    0    0    0  501  0.00000000000E+00  0.00000000000E+00 -0.67970069653E+02  0.67970069653E+02  0.00000000000E+00 0.  1.
        6    2    1    2  502    0  0.40672492621E+01 -0.41914185771E+02  0.20278648092E+03  0.27262137958E+03  0.17727582541E+03 0.  0.
       24    2    3    3    0    0  0.54156579632E+02 -0.16925107630E+02  0.48438758387E+02  0.10836942527E+03  0.78601683401E+02 0.  0.
       -6    2    1    2    0  501 -0.40672492621E+01  0.41914185771E+02  0.20513771927E+03  0.27124295992E+03  0.17238885681E+03 0.  0.
      -24    2    5    5    0    0 -0.27501505823E+02  0.76084171386E+02  0.19777645503E+03  0.22889876895E+03  0.82060869502E+02 0.  0.
        5    1    3    3  502    0 -0.50089330370E+02 -0.24989078141E+02  0.15434772253E+03  0.16425195431E+03  0.47000000000E+01 0. -1.
      -13    1    4    4    0    0 -0.39882945466E+01  0.21982169912E+02  0.27316447050E+02  0.35288958144E+02  0.00000000000E+00 0.  1.
       14    1    4    4    0    0  0.58144874179E+02 -0.38907277543E+02  0.21122311336E+02  0.73080467125E+02  0.00000000000E+00 0. -1.
       -5    1    5    5    0  501  0.23434256561E+02 -0.34169985615E+02  0.73612642369E+01  0.42344190967E+02  0.47000000000E+01 0.  1.
        3    1    6    6  503    0  0.57277571702E+01  0.71042753881E+02  0.17311217382E+03  0.18721032238E+03  0.00000000000E+00 0. -1.
       -4    1    6    6    0  503 -0.33229262993E+02  0.50414175057E+01  0.24664281210E+02  0.41688446567E+02  0.00000000000E+00 0.  1.
</event>
<event>
12   0  0.1544783E-01  0.1756724E+03  0.7957747E-01  0.1177526E+00
       21   -1    0    0  504  503  0.00000000000E+00  0.00000000000E+00  0.59193288604E+03  0.59193288604E+03  0.00000000000E+00 0.  1.
       21   -1    0    0  501  504  0.00000000000E+00  0.00000000000E+00 -0.13447245637E+03  0.13447245637E+03  0.00000000000E+00 0.  1.
        6    2    1    2  501    0 -0.34104031331E+02  0.97833496782E+01 -0.55489289535E+02  0.18420778683E+03  0.17203095242E+03 0.  0.
       24    2    3    3    0    0 -0.64571214066E+02  0.46987263241E+02 -0.74448781264E+02  0.13230467772E+03  0.74730596965E+02 0.  0.
       -6    2    1    2    0  503  0.34104031331E+02 -0.97833496782E+01  0.51294971920E+03  0.54219755558E+03  0.17205224776E+03 0.  0.
      -24    2    5    5    0    0  0.13905506415E+02  0.54004020479E+02  0.38480260635E+03  0.39755806743E+03  0.82882891989E+02 0.  0.
        5    1    3    3  501    0  0.30467182734E+02 -0.37203913563E+02  0.18959491729E+02  0.51903109105E+02  0.47000000000E+01 0. -1.
        2    1    4    4  502    0 -0.22974259103E+02  0.29369372116E+02  0.81424605227E+01  0.38166428483E+02  0.00000000000E+00 0. -1.
       -1    1    4    4    0  502 -0.41596954963E+02  0.17617891125E+02 -0.82591241787E+02  0.94138249239E+02  0.00000000000E+00 0.  1.
       -5    1    5    5    0  503  0.20198524917E+02 -0.63787370157E+02  0.12814711285E+03  0.14463948815E+03  0.47000000000E+01 0.  1.
       13    1    6    6    0    0 -0.13374644188E+02  0.46087690160E+02  0.95648825381E+02  0.10701240156E+03  0.00000000000E+00 0. -1.
      -14    1    6    6    0    0  0.27280150603E+02  0.79163303184E+01  0.28915378097E+03  0.29054566586E+03  0.00000000000E+00 0.  1.
</event>
<event>
12   0  0.1544783E-01  0.1995258E+03  0.7957747E-01  0.1156372E+00
       21   -1    0    0  501  503  0.00000000000E+00  0.00000000000E+00  0.52587693825E+03  0.52587693825E+03  0.00000000000E+00 0. -1.
       21   -1    0    0  503  504  0.00000000000E+00  0.00000000000E+00 -0.76144014869E+02  0.76144014869E+02  0.00000000000E+00 0. -1.
        6    2    1    2  501    0  0.53060297626E+02 -0.81913332577E+02  0.25716691778E+03  0.32549252396E+03  0.17402692411E+03 0.  0.
       24    2    3    3    0    0  0.10158105924E+03 -0.17104687892E+02  0.13280807940E+03  0.17702826760E+03  0.55585426432E+02 0.  0.
       -6    2    1    2    0  504 -0.53060297626E+02  0.81913332577E+02  0.19256600560E+03  0.27652842916E+03  0.17280369320E+03 0.  0.
      -24    2    5    5    0    0 -0.19903774640E+02  0.72134897543E+02  0.21020106793E+03  0.23743804375E+03  0.81195640102E+02 0.  0.
        5    1    3    3  501    0 -0.48520761610E+02 -0.64808644685E+02  0.12435883838E+03  0.14846425636E+03  0.47000000000E+01 0. -1.
        2    1    4    4  502    0  0.96185149941E+02  0.24822829172E+01  0.10294293154E+03  0.14090774270E+03  0.00000000000E+00 0. -1.
       -1    1    4    4    0  502  0.53959092955E+01 -0.19586970809E+02  0.29865147852E+02  0.36120524897E+02  0.00000000000E+00 0.  1.
       -5    1    5    5    0  504 -0.33156522986E+02  0.97784350333E+01 -0.17635062330E+02  0.39090385411E+02  0.47000000000E+01 0.  1.
       11    1    6    6    0    0 -0.29614053902E+02  0.18992089481E+02  0.15955510799E+03  0.16338764989E+03  0.00000000000E+00 0. -1.
      -12    1    6    6    0    0  0.97102792617E+01  0.53142808063E+02  0.50645959941E+02  0.74050393857E+02  0.00000000000E+00 0.  1.
</event>
<event>
12   0  0.1544783E-01  0.1790525E+03  0.7957747E-01  0.1174310E+00
       21   -1    0    0  501  503  0.00000000000E+00  0.00000000000E+00  0.19604891698E+03  0.19604891698E+03  0.00000000000E+00 0. -1.
       21   -1    0    0  503  504  0.00000000000E+00  0.00000000000E+00 -0.22411524604E+03  0.22411524604E+03  0.00000000000E+00 0. -1.
        6    2    1    2  501    0 -0.39096757239E+02  0.19274986588E+02  0.95769598606E+02  0.20245991401E+03  0.17296854983E+03 0.  0.
       24    2    3    3    0    0 -0.85650278567E+02  0.14594029843E+02  0.35147361735E+02  0.12573777048E+03  0.83819412810E+02 0.  0.
       -6    2    1    2    0  504  0.39096757239E+02 -0.19274986588E+02 -0.12383592766E+03  0.21770424901E+03  0.17366554500E+03 0.  0.
      -24    2    5    5    0    0 -0.77716935852E+01  0.50730952183E+02 -0.58985916802E+02  0.11128480974E+03  0.79189278103E+02 0.  0.
        5    1    3    3  501    0  0.46553521327E+02  0.46809567446E+01  0.60622236872E+02  0.76722143527E+02  0.47000000000E+01 0. -1.
      -11    1    4    4    0    0 -0.29740689693E+02  0.43969421590E+02  0.33080416224E+02  0.62547043063E+02  0.00000000000E+00 0.  1.
       12    1    4    4    0    0 -0.55909588873E+02 -0.29375391747E+02  0.20669455112E+01  0.63190727421E+02  0.00000000000E+00 0. -1.
       -5    1    5    5    0  504  0.46868450825E+02 -0.70005938771E+02 -0.64850010862E+02  0.10641943927E+03  0.47000000000E+01 0.  1.
        1    1    6    6  502    0  0.28887442278E+02  0.47970005967E+02 -0.45411297550E+02  0.72095712348E+02  0.00000000000E+00 0. -1.
       -2    1    6    6    0  502 -0.36659135864E+02  0.27609462164E+01 -0.13574619253E+02  0.39189097389E+02  0.00000000000E+00 0.  1.
</event>
<event>
12   0  0.1544783E-01  0.1935635E+03  0.7957747E-01  0.1161343E+00
       21   -1    0    0  504  503  0.00000000000E+00  0.00000000000E+00  0.14290170034E+03  0.14290170034E+03  0.00000000000E+00 0. -1.
       21   -1    0    0  501  504  0.00000000000E+00  0.00000000000E+00 -0.28952700351E+03  0.28952700351E+03  0.00000000000E+00 0. -1.
        6    2    1    2  501    0  0.29803910496E+02 -0.77224994914E+02 -0.14234431471E+03  0.24026800843E+03  0.17497096624E+03 0.  0.
       24    2    3    3    0    0  0.39897234241E+02 -0.44959276743E+02 -0.92209328097E+01  0.10283847536E+03  0.82931300160E+02 0.  0.
       -6    2    1    2    0  503 -0.29803910496E+02  0.77224994914E+02 -0.42809884667E+01  0.19216069542E+03  0.17336502843E+03 0.  0.
      -24    2    5    5    0    0 -0.52792607208E+02 -0.15815029861E+01 -0.36927912792E+02  0.10369117550E+03  0.81231943254E+02 0.  0.
        5    1    3    3  501    0 -0.10093323746E+02 -0.32265718171E+02 -0.13312338190E+03  0.13742953307E+03  0.47000000000E+01 0. -1.
      -11    1    4    4    0    0 -0.13364443692E+02  0.15927618646E+02  0.30624721481E+01  0.21016092087E+02  0.00000000000E+00 0.  1.
       12    1    4    4    0    0  0.53261677933E+02 -0.60886895389E+02 -0.12283404958E+02  0.81822383269E+02  0.00000000000E+00 0. -1.
       -5    1    5    5    0  503  0.22988696712E+02  0.78806497900E+02  0.32646924326E+02  0.88469519925E+02  0.47000000000E+01 0.  1.
        1    1    6    6  502    0 -0.31441593833E+02  0.32992112362E+02  0.43331672845E+01  0.45780231974E+02  0.00000000000E+00 0. -1.
       -2    1    6    6    0  502 -0.21351013375E+02 -0.34573615348E+02 -0.41261080077E+02  0.57910943521E+02  0.00000000000E+00 0.  1.
</event>
<event>
12   0  0.1544783E-01  0.1740485E+03  0.7957747E-01  0.1179099E+00
       21   -1    0    0  504  503  0.00000000000E+00  0.00000000000E+00  0.38472942421E+03  0.38472942421E+03  0.00000000000E+00 0. -1.
       21   -1    0    0  501  504  0.00000000000E+00  0.00000000000E+00 -0.97506594990E+02  0.97506594990E+02  0.00000000000E+00 0. -1.
        6    2    1    2  501    0 -0.11141733101E+01  0.60380485201E+01  0.36828475025E+02  0.17790222486E+03  0.17394012080E+03 0.  0.
       24    2    3    3    0    0 -0.52838726034E+02  0.35697908541E+02  0.55031629781E+02  0.11538357569E+03  0.78858212125E+02 0.  0.
       -6    2    1    2    0  503  0.11141733101E+01 -0.60380485201E+01  0.25039435420E+03  0.30433379434E+03  0.17286996949E+03 0.  0.
      -24    2    5    5    0    0  0.51532691517E+02  0.75344688655E+01  0.22791738216E+03  0.24729394443E+03  0.80595132255E+02 0.  0.
        5    1    3    3  501    0  0.51724552724E+02 -0.29659860021E+02 -0.18203154756E+02  0.62518649170E+02  0.47000000000E+01 0. -1.
        2    1    4    4  502    0 -0.35829359114E+02  0.23596721174E+02 -0.12511066945E+02  0.44688645322E+02  0.00000000000E+00 0. -1.
       -1    1    4    4    0  502 -0.17009366921E+02  0.12101187367E+02  0.67542696726E+02  0.70694930368E+02  0.00000000000E+00 0.  1.
       -5    1    5    5    0  503 -0.50418518206E+02 -0.13572517386E+02  0.22476972035E+02  0.57039849914E+02  0.47000000000E+01 0.  1.
       11    1    6    6    0    0  0.19768985010E+02  0.38208576188E+02  0.16440176448E+03  0.16993718906E+03  0.00000000000E+00 0. -1.
      -12    1    6    6    0    0  0.31763706506E+02 -0.30674107322E+02  0.63515617684E+02  0.77356755367E+02  0.00000000000E+00 0.  1.
</event>
<event>
12   0  0.1544783E-01  0.2599308E+03  0.7957747E-01  0.1114772E+00
       21   -1    0    0  504  503  0.00000000000E+00  0.00000000000E+00  0.25453465805E+03  0.25453465805E+03  0.00000000000E+00 0.  1.
       21   -1    0    0  501  504  0.00000000000E+00  0.00000000000E+00 -0.42808069055E+03  0.42808069055E+03  0.00000000000E+00 0.  1.
        6    2    1    2  501    0 -0.19060022706E+03 -0.33129035864E+02 -0.29753783556E+03  0.39462574579E+03  0.17255357453E+03 0.  0.
       24    2    3    3    0    0 -0.16624667626E+03 -0.83723403043E+02 -0.23065595953E+03  0.30717198220E+03  0.80652894517E+02 0.  0.
       -6    2    1    2    0  503  0.19060022706E+03  0.33129035864E+02  0.12399180306E+03  0.28798960281E+03  0.17360318122E+03 0.  0.
      -24    2    5    5    0    0  0.34878531896E+02  0.71833780980E+01  0.86616880451E+02  0.12568926904E+03  0.83828369093E+02 0.  0.
        5    1    3    3  501    0 -0.24353550798E+02  0.50594367178E+02 -0.66881876023E+02  0.87453763595E+02  0.47000000000E+01 0. -1.
        2    1    4    4  502    0 -0.13003605924E+03 -0.75347112520E+02 -0.12602133000E+03  0.19613245444E+03  0.00000000000E+00 0. -1.
       -1    1    4    4    0  502 -0.36210617018E+02 -0.83762905231E+01 -0.10463462953E+03  0.11103952776E+03  0.00000000000E+00 0.  1.
       -5    1    5    5    0  503  0.15572169516E+03  0.25945657766E+02  0.37374922604E+02  0.16230033377E+03  0.47000000000E+01 0.  1.
       11    1    6    6    0    0 -0.26270305061E+02 -0.48936394418E+01  0.14620023274E+02  0.30460166046E+02  0.00000000000E+00 0. -1.
      -12    1    6    6    0    0  0.61148836957E+02  0.12077017540E+02  0.71996857177E+02  0.95229102995E+02  0.00000000000E+00 0.  1.
</event>
<event>
12   0  0.1544783E-01  0.1746727E+03  0.7957747E-01  0.1178492E+00
       -1   -1    0    0    0  501  0.00000000000E+00  0.00000000000E+00  0.34188263986E+03  0.34188263986E+03  0.00000000000E+00 0. -1.
        1   -1    0    0  502    0  0.00000000000E+00  0.00000000000E+00 -0.89828710817E+02  0.89828710817E+02  0.00000000000E+00 0.  1.
        6    2    1    2  502    0 -0.60359909697E+01  0.18132205137E+02  0.10872481038E+03  0.20590028971E+03  0.17380631421E+03 0.  0.
       24    2    3    3    0    0  0.60731040448E+02 -0.15722126974E+01  0.89949532535E+02  0.13364586684E+03  0.77971585806E+02 0.  0.
       -6    2    1    2    0  501  0.60359909697E+01 -0.18132205137E+02  0.14332911866E+03  0.22581106097E+03  0.17344217754E+03 0.  0.
      -24    2    5    5    0    0 -0.61707803260E+02 -0.70914356869E+01  0.59145958038E+02  0.11709116960E+03  0.79711706810E+02 0.  0.
        5    1    3    3  502    0 -0.66767031417E+02  0.19704417834E+02  0.18775277847E+02  0.72254422873E+02  0.47000000000E+01 0. -1.
      -13    1    4    4    0    0  0.19569710542E+01  0.28360650119E+02  0.10310352257E+02  0.30240032648E+02  0.00000000000E+00 0.  1.
       14    1    4    4    0    0  0.58774069394E+02 -0.29932862816E+02  0.79639180277E+02  0.10340583419E+03  0.00000000000E+00 0. -1.
       -5    1    5    5    0  501  0.67743794229E+02 -0.11040769450E+02  0.84183160626E+02  0.10871989137E+03  0.47000000000E+01 0.  1.
        1    1    6    6  503    0 -0.30269168877E+02 -0.12138514976E+02  0.74807193531E+02  0.81606876759E+02  0.00000000000E+00 0. -1.
       -2    1    6    6    0  503 -0.31438634383E+02  0.50470792893E+01 -0.15661235493E+02  0.35484292840E+02  0.00000000000E+00 0.  1.
</event>
<event>
12   0  0.1544783E-01  0.1834091E+03  0.7957747E-01  0.1170279E+00
        2   -1    0    0  502    0  0.00000000000E+00  0.00000000000E+00  0.26285702830E+03  0.26285702830E+03  0.00000000000E+00 0.  1.
       -2   -1    0    0    0  501  0.00000000000E+00  0.00000000000E+00 -0.15805495341E+03  0.15805495341E+03  0.00000000000E+00 0. -1.
        6    2    1    2  502    0  0.20090901213E+02 -0.57325952833E+02 -0.39445578386E+02  0.18745849234E+03  0.17290119582E+03 0.  0.
       24    2    3    3    0    0  0.64155389890E+02  0.62620256605E+01 -0.42141646942E+01  0.10232064716E+03  0.79351298879E+02 0.  0.
       -6    2    1    2    0  501 -0.20090901213E+02  0.57325952833E+02  0.14424765328E+03  0.23345348937E+03  0.17321442505E+03 0.  0.
      -24    2    5    5    0    0 -0.44752840955E+02  0.60120981970E+02  0.16716792307E+03  0.19934407385E+03  0.78584960586E+02 0.  0.
        5    1    3    3  502    0 -0.44064488677E+02 -0.63587978493E+02 -0.35231413692E+02  0.85137845180E+02  0.47000000000E+01 0. -1.
      -11    1    4    4    0    0  0.20830160129E+02  0.49872982770E+00  0.36860633317E+02  0.42342066447E+02  0.00000000000E+00 0.  1.
       12    1    4    4    0    0  0.43325229760E+02  0.57632958328E+01 -0.41074798011E+02  0.59978580713E+02  0.00000000000E+00 0. -1.
       -5    1    5    5    0  501  0.24661939742E+02 -0.27950291374E+01 -0.22920269793E+02  0.34109415520E+02  0.47000000000E+01 0.  1.
        1    1    6    6  503    0 -0.34106651925E+02  0.39842753355E-01  0.18858105278E+02  0.38972983305E+02  0.00000000000E+00 0. -1.
       -2    1    6    6    0  503 -0.10646189030E+02  0.60081139217E+02  0.14830981779E+03  0.16037109055E+03  0.00000000000E+00 0.  1.
</event>
<event>
12   0  0.1544783E-01  0.2043547E+03  0.7957747E-01  0.1152483E+00
        1   -1    0    0  502    0  0.00000000000E+00  0.00000000000E+00  0.16980898578E+03  0.16980898578E+03  0.00000000000E+00 0. -1.
       -1   -1    0    0    0  501  0.00000000000E+00  0.00000000000E+00 -0.39128459161E+03  0.39128459161E+03  0.00000000000E+00 0.  1.
        6    2    1    2  502    0  0.87383045051E+02  0.68355096528E+02 -0.28131416903E+03  0.34700259475E+03  0.17019084370E+03 0.  0.
       24    2    3    3    0    0  0.17105797202E+02 -0.90486969813E+00 -0.52523416465E+02  0.97797592897E+02  0.80698406503E+02 0.  0.
       -6    2    1    2    0  501 -0.87383045051E+02 -0.68355096528E+02  0.59838563202E+02  0.21409098264E+03  0.17304935544E+03 0.  0.
      -24    2    5    5    0    0 -0.46345591371E+02 -0.10443926878E+03  0.70874737241E+02  0.15814433636E+03  0.83252195419E+02 0.  0.
        5    1    3    3  502    0  0.70277247850E+02  0.69259966226E+02 -0.22879075257E+03  0.24920500185E+03  0.47000000000E+01 0. -1.
        4    1    4    4  503    0 -0.63504185419E+01 -0.37784646361E+02 -0.19327842436E+02  0.42913550418E+02  0.00000000000E+00 0. -1.
       -3    1    4    4    0  503  0.23456215744E+02  0.36879776662E+02 -0.33195574029E+02  0.54884042478E+02  0.00000000000E+00 0.  1.
       -5    1    5    5    0  501 -0.41037453680E+02  0.36084172254E+02 -0.11036174039E+02  0.55946646273E+02  0.47000000000E+01 0.  1.
       11    1    6    6    0    0 -0.76467804004E+01 -0.36719377093E+02  0.70829064773E+02  0.80147004443E+02  0.00000000000E+00 0. -1.
      -12    1    6    6    0    0 -0.38698810971E+02 -0.67719891689E+02  0.45672467765E-01  0.77997331922E+02  0.00000000000E+00 0.  1.
</event>
<event>
12   0  0.1544783E-01  0.2101945E+03  0.7957747E-01  0.1147934E+00
       21   -1    0    0  504  503  0.00000000000E+00  0.00000000000E+00  0.28828530974E+03  0.28828530974E+03  0.00000000000E+00 0. -1.
       21   -1    0    0  501  504  0.00000000000E+00  0.00000000000E+00 -0.18351180262E+03  0.18351180262E+03  0.00000000000E+00 0. -1.
        6    2    1    2  501    0  0.79035708648E+02 -0.89453057079E+02 -0.43677736590E+02  0.21468459556E+03  0.17301224880E+03 0.  0.
       24    2    3    3    0    0  0.43896551383E+02 -0.12640445261E+03 -0.24747611539E+02  0.16008967236E+03  0.84328322978E+02 0.  0.
       -6    2    1    2    0  503 -0.79035708648E+02  0.89453057079E+02  0.14845124371E+03  0.25711251680E+03  0.17268636852E+03 0.  0.
      -24    2    5    5    0    0  0.14060918435E+02  0.23871239162E+02  0.10521881286E+03  0.13521465015E+03  0.80277378812E+02 0.  0.
        5    1    3    3  501    0  0.35139157265E+02  0.36951395532E+02 -0.18930125051E+02  0.54594923202E+02  0.47000000000E+01 0. -1.
        2    1    4    4  502    0  0.48141729063E+02 -0.70721825145E+02 -0.49681851011E+02  0.98931738835E+02  0.00000000000E+00 0. -1.
       -1    1    4    4    0  502 -0.42451776799E+01 -0.55682627466E+02  0.24934239472E+02  0.61157933525E+02  0.00000000000E+00 0.  1.
       -5    1    5    5    0  503 -0.93096627082E+02  0.65581817918E+02  0.43232430847E+02  0.12189786664E+03  0.47000000000E+01 0.  1.
       11    1    6    6    0    0 -0.19895378850E+02  0.40654581535E+02  0.43354222416E+02  0.62675431396E+02  0.00000000000E+00 0. -1.
      -12    1    6    6    0    0  0.33956297284E+02 -0.16783342373E+02  0.61864590448E+02  0.72539218756E+02  0.00000000000E+00 0.  1.
</event>
<event>
12   0  0.1544783E-01  0.3246328E+03  0.7957747E-01  0.1082056E+00
       21   -1    0    0  501  503  0.00000000000E+00  0.00000000000E+00  0.36365058101E+03  0.36365058101E+03  0.00000000000E+00 0.  1.
       21   -1    0    0  503  504  0.00000000000E+00  0.00000000000E+00 -0.28991710555E+03  0.28991710555E+03  0.00000000000E+00 0.  1.
        6    2    1    2  501    0  0.20334215484E+03  0.18475274969E+03  0.62535411594E+02  0.33060120559E+03  0.17293024310E+03 0.  0.
       24    2    3    3    0    0  0.10490727661E+03  0.46566199648E+02  0.75301526230E+02  0.16039541383E+03  0.82960359750E+02 0.  0.
       -6    2    1    2    0  504 -0.20334215484E+03 -0.18475274969E+03  0.11198063864E+02  0.32296648097E+03  0.16941174913E+03 0.  0.
      -24    2    5    5    0    0 -0.99909183929E+02 -0.14011404872E+03 -0.52012756129E+02  0.19370437957E+03  0.72126750798E+02 0.  0.
        5    1    3    3  501    0  0.98434878230E+02  0.13818655004E+03 -0.12766114637E+02  0.17020579176E+03  0.47000000000E+01 0. -1.
      -11    1    4    4    0    0  0.11902765327E+03  0.38076111582E+02  0.63898701845E+02  0.14035817259E+03  0.00000000000E+00 0.  1.
       12    1    4    4    0    0 -0.14120376662E+02  0.84900880658E+01  0.11402824385E+02  0.20037241237E+02  0.00000000000E+00 0. -1.
       -5    1    5    5    0  504 -0.10343297091E+03 -0.44638700969E+02  0.63210819993E+02  0.12926210140E+03  0.47000000000E+01 0.  1.
        3    1    6    6  502    0 -0.77185984360E+01 -0.60955239063E+02  0.21766551788E+00  0.61442373890E+02  0.00000000000E+00 0. -1.
       -4    1    6    6    0  502 -0.92190585493E+02 -0.79158809661E+02 -0.52230421647E+02  0.13226200568E+03  0.00000000000E+00 0.  1.
</event>
<event>
12   0  0.1544783E-01  0.1856676E+03  0.7957747E-01  0.1168238E+00
       21   -1    0    0  501  503  0.00000000000E+00  0.00000000000E+00  0.61569384092E+03  0.61569384092E+03  0.00000000000E+00 0. -1.
       21   -1    0    0  503  504  0.00000000000E+00  0.00000000000E+00 -0.72343497653E+02  0.72343497653E+02  0.00000000000E+00 0. -1.
        6    2    1    2  501    0  0.18700360787E+02 -0.66199336038E+02  0.43538894308E+03  0.47332438420E+03  0.17245400934E+03 0.  0.
       24    2    3    3    0    0 -0.28766775270E+02  0.19138551461E+02  0.21031128190E+03  0.22793137776E+03  0.80796448939E+02 0.  0.
       -6    2    1    2    0  504 -0.18700360787E+02  0.66199336038E+02  0.10796140019E+03  0.21471295437E+03  0.17237729914E+03 0.  0.
      -24    2    5    5    0    0 -0.26972289999E+02 -0.30639183218E+02  0.31910569344E+02  0.91214199331E+02  0.75069845795E+02 0.  0.
        5    1    3    3  501    0  0.47467136057E+02 -0.85337887499E+02  0.22507766118E+03  0.24539300644E+03  0.47000000000E+01 0. -1.
        4    1    4    4  502    0  0.11160515736E+02  0.39928577688E+02  0.80725194739E+02  0.90749134945E+02  0.00000000000E+00 0. -1.
       -3    1    4    4    0  502 -0.39927291006E+02 -0.20790026228E+02  0.12958608716E+03  0.13718224282E+03  0.00000000000E+00 0.  1.
       -5    1    5    5    0  504  0.82719292124E+01  0.96838519256E+02  0.76050830843E+02  0.12349875504E+03  0.47000000000E+01 0.  1.
       13    1    6    6    0    0 -0.10806243713E+02  0.25137459018E+02  0.93902385051E+01  0.28928244472E+02  0.00000000000E+00 0. -1.
      -14    1    6    6    0    0 -0.16166046286E+02 -0.55776642236E+02  0.22520330839E+02  0.62285954859E+02  0.00000000000E+00 0.  1.
</event>
<event>
12   0  0.1544783E-01  0.2950092E+03  0.7957747E-01  0.1095901E+00
        1   -1    0    0  502    0  0.00000000000E+00  0.00000000000E+00  0.37391618377E+03  0.37391618377E+03  0.00000000000E+00 0. -1.
       -1   -1    0    0    0  501  0.00000000000E+00  0.00000000000E+00 -0.23808918479E+03  0.23808918479E+03  0.00000000000E+00 0.  1.
        6    2    1    2  502    0  0.23911545627E+03  0.14623740822E+02  0.11380286520E+03  0.31654412243E+03  0.17279766807E+03 0.  0.
       24    2    3    3    0    0  0.22812335375E+03  0.55480269670E+02  0.76466316651E+02  0.25992089287E+03  0.81200050000E+02 0.  0.
       -6    2    1    2    0  501 -0.23911545627E+03 -0.14623740822E+02  0.22024133774E+02  0.29546124613E+03  0.17152909454E+03 0.  0.
      -24    2    5    5    0    0 -0.67335840237E+02  0.31518094382E+02  0.78992934990E+01  0.11697061177E+03  0.89956764763E+02 0.  0.
        5    1    3    3  502    0  0.10992102519E+02 -0.40856528848E+02  0.37336548551E+02  0.56623229552E+02  0.47000000000E+01 0. -1.
      -11    1    4    4    0    0  0.17004877658E+03  0.22255458942E+02  0.20552096618E+02  0.17272602741E+03  0.00000000000E+00 0.  1.
       12    1    4    4    0    0  0.58074577177E+02  0.33224810728E+02  0.55914220033E+02  0.87194865468E+02  0.00000000000E+00 0. -1.
       -5    1    5    5    0  501 -0.17177961604E+03 -0.46141835204E+02  0.14124840275E+02  0.17849063436E+03  0.47000000000E+01 0.  1.
        1    1    6    6  503    0 -0.50748571453E+02  0.14104743359E+02  0.47311331499E+02  0.70800588825E+02  0.00000000000E+00 0. -1.
       -2    1    6    6    0  503 -0.16587268784E+02  0.17413351023E+02 -0.39412038000E+02  0.46170022947E+02  0.00000000000E+00 0.  1.
</event>
<event>
12   0  0.1544783E-01  0.1787901E+03  0.7957747E-01  0.1174557E+00
       21   -1    0    0  501  503  0.00000000000E+00  0.00000000000E+00  0.81222539742E+02  0.81222539742E+02  0.00000000000E+00 0.  1.
       21   -1    0    0  503  504  0.00000000000E+00  0.00000000000E+00 -0.41754524987E+03  0.41754524987E+03  0.00000000000E+00 0.  1.
        6    2    1    2  501    0  0.64793811047E+01 -0.44793118827E+02 -0.10120139231E+03  0.20544497026E+03  0.17296678330E+03 0.  0.
       24    2    3    3    0    0 -0.49099953060E+02 -0.68875891022E+02 -0.83842512042E+02  0.14225903015E+03  0.77803413037E+02 0.  0.
       -6    2    1    2    0  504 -0.64793811047E+01  0.44793118827E+02 -0.23512131782E+03  0.29332281935E+03  0.16943387025E+03 0.  0.
      -24    2    5    5    0    0  0.15423560016E+02  0.90743052233E+02 -0.18118212705E+03  0.21900820767E+03  0.81642171269E+02 0.  0.
        5    1    3    3  501    0  0.55579334165E+02  0.24082772195E+02 -0.17358880267E+02  0.63185940104E+02  0.47000000000E+01 0. -1.
      -11    1    4    4    0    0 -0.34416737357E+02 -0.17894207474E+02  0.46631959831E+01  0.39069935605E+02  0.00000000000E+00 0.  1.
       12    1    4    4    0    0 -0.14683215703E+02 -0.50981683548E+02 -0.88505708025E+02  0.10318909455E+03  0.00000000000E+00 0. -1.
       -5    1    5    5    0  504 -0.21902941121E+02 -0.45949933406E+02 -0.53939190764E+02  0.74314611686E+02  0.47000000000E+01 0.  1.
        3    1    6    6  502    0  0.41761544629E+02  0.19117011545E+02 -0.80374294076E+02  0.92571668929E+02  0.00000000000E+00 0. -1.
       -4    1    6    6    0  502 -0.26337984612E+02  0.71626040688E+02 -0.10080783298E+03  0.12643653874E+03  0.00000000000E+00 0.  1.
</event>
<event>
12   0  0.1544783E-01  0.2002397E+03  0.7957747E-01  0.1155789E+00
       21   -1    0    0  504  503  0.00000000000E+00  0.00000000000E+00  0.99249991955E+02  0.99249991955E+02  0.00000000000E+00 0.  1.
       21   -1    0    0  501  504  0.00000000000E+00  0.00000000000E+00 -0.52611085495E+03  0.52611085495E+03  0.00000000000E+00 0.  1.
        6    2    1    2  501    0  0.27128060287E+02 -0.70534309389E+02 -0.37393706683E+03  0.41824527583E+03  0.17143267001E+03 0.  0.
       24    2    3    3    0    0  0.37496801243E+01 -0.47024515445E+02 -0.37369467182E+03  0.38475784795E+03  0.78520880403E+02 0.  0.
       -6    2    1    2    0  503 -0.27128060287E+02  0.70534309389E+02 -0.52923796165E+02  0.20711557108E+03  0.18543168857E+03 0.  0.
      -24    2    5    5    0    0 -0.58110639707E+02  0.78494658159E+02 -0.93364616985E+02  0.15533876769E+03  0.76648047833E+02 0.  0.
        5    1    3    3  501    0  0.23378380162E+02 -0.23509793944E+02 -0.24239500833E+00  0.33487427875E+02  0.47000000000E+01 0. -1.
      -13    1    4    4    0    0 -0.25632428386E+02 -0.53217908066E+02 -0.28684170177E+03  0.29286059653E+03  0.00000000000E+00 0.  1.
       14    1    4    4    0    0  0.29382108511E+02  0.61933926218E+01 -0.86852970049E+02  0.91897251422E+02  0.00000000000E+00 0. -1.
       -5    1    5    5    0  503  0.30982579421E+02 -0.79603487695E+01  0.40440820821E+02  0.51776803385E+02  0.47000000000E+01 0.  1.
        1    1    6    6  502    0 -0.64061119034E+02  0.47921714301E+02 -0.31318439327E+02  0.85913691082E+02  0.00000000000E+00 0. -1.
       -2    1    6    6    0  502  0.59504793265E+01  0.30572943857E+02 -0.62046177658E+02  0.69425076610E+02  0.00000000000E+00 0.  1.
</event>
<event>
12   0  0.1544783E-01  0.2086134E+03  0.7957747E-01  0.1149150E+00
       21   -1    0    0  504  503  0.00000000000E+00  0.00000000000E+00  0.57832724462E+03  0.57832724462E+03  0.00000000000E+00 0. -1.
       21   -1    0    0  501  504  0.00000000000E+00  0.00000000000E+00 -0.13659816924E+03  0.13659816924E+03  0.00000000000E+00 0. -1.
        6    2    1    2  501    0  0.11600081372E+03 -0.56055288277E+01 -0.20216231594E+02  0.20959068709E+03  0.17329728606E+03 0.  0.
       24    2    3    3    0    0  0.92871417891E+02  0.54224413162E+02 -0.40778681627E+02  0.14206665239E+03  0.83394517824E+02 0.  0.
       -6    2    1    2    0  503 -0.11600081372E+03  0.56055288277E+01  0.46194530697E+03  0.50533472677E+03  0.16876643243E+03 0.  0.
      -24    2    5    5    0    0 -0.14857564099E+03  0.16362106909E+02  0.37859559458E+03  0.41507904607E+03  0.81323739541E+02 0.  0.
        5    1    3    3  501    0  0.23129395828E+02 -0.59829941990E+02  0.20562450034E+02  0.67524034694E+02  0.47000000000E+01 0. -1.
        4    1    4    4  502    0  0.81375812155E+02  0.74371561372E+02 -0.22451925022E+02  0.11250440383E+03  0.00000000000E+00 0. -1.
       -3    1    4    4    0  502  0.11495605736E+02 -0.20147148210E+02 -0.18326756606E+02  0.29562248560E+02  0.00000000000E+00 0.  1.
       -5    1    5    5    0  503  0.32574827274E+02 -0.10756578081E+02  0.83349712383E+02  0.90255680698E+02  0.47000000000E+01 0.  1.
       13    1    6    6    0    0 -0.73077627768E+02  0.48721845996E+02  0.20551067898E+03  0.22349227533E+03  0.00000000000E+00 0. -1.
      -14    1    6    6    0    0 -0.75498013226E+02 -0.32359739087E+02  0.17308491560E+03  0.19158677074E+03  0.00000000000E+00 0.  1.
</event>
<event>
12   0  0.1544783E-01  0.2541244E+03  0.7957747E-01  0.1118208E+00
       21   -1    0    0  501  503  0.00000000000E+00  0.00000000000E+00  0.47578051930E+03  0.47578051930E+03  0.00000000000E+00 0.  1.
       21   -1    0    0  503  504  0.00000000000E+00  0.00000000000E+00 -0.19356897615E+03  0.19356897615E+03  0.00000000000E+00 0.  1.
        6    2    1    2  501    0  0.12977805954E+03  0.13210376549E+03  0.32465521463E+03  0.41228658257E+03  0.17402720529E+03 0.  0.
       24    2    3    3    0    0  0.15384667310E+03  0.14522158723E+03  0.29874589487E+03  0.37427660682E+03  0.77947164722E+02 0.  0.
       -6    2    1    2    0  504 -0.12977805954E+03 -0.13210376549E+03 -0.42443671487E+02  0.25706291289E+03  0.17316502631E+03 0.  0.
      -24    2    5    5    0    0 -0.12056523182E+03 -0.57471601848E+02  0.22904592728E+02  0.15732665228E+03  0.79925559150E+02 0.  0.
        5    1    3    3  501    0 -0.24068613558E+02 -0.13117821742E+02  0.25909319762E+02  0.38009975748E+02  0.47000000000E+01 0. -1.
        2    1    4    4  502    0  0.10569008093E+03  0.11912060829E+03  0.26722985441E+03  0.31108183427E+03  0.00000000000E+00 0. -1.
       -1    1    4    4    0  502  0.48156592169E+02  0.26100978946E+02  0.31516040465E+02  0.63194772552E+02  0.00000000000E+00 0.  1.
       -5    1    5    5    0  504 -0.92128277215E+01 -0.74632163642E+02 -0.65348264215E+02  0.99736260610E+02  0.47000000000E+01 0.  1.
       11    1    6    6    0    0 -0.59241426764E+02 -0.32203869285E+02  0.51751896339E+02  0.84999380096E+02  0.00000000000E+00 0. -1.
      -12    1    6    6    0    0 -0.61323805057E+02 -0.25267732562E+02 -0.28847303611E+02  0.72327272180E+02  0.00000000000E+00 0.  1.
</event>
<event>
12   0  0.1544783E-01  0.2046452E+03  0.7957747E-01  0.1152253E+00
       21   -1    0    0  501  503  0.00000000000E+00  0.00000000000E+00  0.93899362097E+03  0.93899362097E+03  0.00000000000E+00 0.  1.
       21   -1    0    0  503  504  0.00000000000E+00  0.00000000000E+00 -0.11458236096E+03  0.11458236096E+03  0.00000000000E+00 0.  1.
        6    2    1    2  501    0  0.10830258058E+03  0.15165028629E+02  0.82389972505E+03  0.84893018880E+03  0.17295167376E+03 0.  0.
       24    2    3    3    0    0  0.30833177663E+02  0.63944041145E+02  0.34109624276E+03  0.35750146257E+03  0.80131914184E+02 0.  0.
       -6    2    1    2    0  504 -0.10830258058E+03 -0.15165028629E+02  0.51153496204E+00  0.20464579313E+03  0.17297459907E+03 0.  0.
      -24    2    5    5    0    0 -0.12121473733E+02  0.44353412127E+02  0.79613212332E+01  0.91196071140E+02  0.78352954397E+02 0.  0.
        5    1    3    3  501    0  0.77469402913E+02 -0.48779012516E+02  0.48280348229E+03  0.49142872623E+03  0.47000000000E+01 0. -1.
      -13    1    4    4    0    0  0.56261377583E+02  0.56913733333E+02  0.27243960682E+03  0.28395044465E+03  0.00000000000E+00 0.  1.
       14    1    4    4    0    0 -0.25428199920E+02  0.70303078119E+01  0.68656635936E+02  0.73551017920E+02  0.00000000000E+00 0. -1.
       -5    1    5    5    0  504 -0.96181106843E+02 -0.59518440756E+02 -0.74497862712E+01  0.11344972199E+03  0.47000000000E+01 0.  1.
        3    1    6    6  502    0  0.14372799959E+02  0.17348997966E+02 -0.30056476374E+02  0.37562705988E+02  0.00000000000E+00 0. -1.
       -4    1    6    6    0  502 -0.26494273692E+02  0.27004414161E+02  0.38017797607E+02  0.53633365152E+02  0.00000000000E+00 0.  1.
</event>
<event>
12   0  0.1544783E-01  0.2326435E+03  0.7957747E-01  0.1131847E+00
       21   -1    0    0  504  503  0.00000000000E+00  0.00000000000E+00  0.82167127294E+03  0.82167127294E+03  0.00000000000E+00 0. -1.
       21   -1    0    0  501  504  0.00000000000E+00  0.00000000000E+00 -0.87524272955E+02  0.87524272955E+02  0.00000000000E+00 0.  1.
        6    2    1    2  501    0  0.12451486272E+03  0.89651362217E+02  0.13855875177E+03  0.27077946859E+03  0.17487617085E+03 0.  0.
       24    2    3    3    0    0  0.64608483428E+02  0.17850187379E+02  0.14223090064E+03  0.17707910752E+03  0.81452414946E+02 0.  0.
       -6    2    1    2    0  503 -0.12451486272E+03 -0.89651362217E+02  0.59558824821E+03  0.63841607731E+03  0.17119698762E+03 0.  0.
      -24    2    5    5    0    0 -0.84316239237E+02 -0.92882774442E+02  0.57309079693E+03  0.59199844413E+03  0.79326277756E+02 0.  0.
        5    1    3    3  501    0  0.59906379294E+02  0.71801174838E+02 -0.36721488671E+01  0.93700361075E+02  0.47000000000E+01 0. -1.
      -11    1    4    4    0    0  0.80195570208E+01 -0.15549137487E+02 -0.29292581218E+01  0.17738926814E+02  0.00000000000E+00 0.  1.
       12    1    4    4    0    0  0.56588926408E+02  0.33399324865E+02  0.14516015876E+03  0.15934018070E+03  0.00000000000E+00 0. -1.
       -5    1    5    5    0  503 -0.40198623486E+02  0.32314122250E+01  0.22497451278E+02  0.46417633170E+02  0.47000000000E+01 0.  1.
        3    1    6    6  502    0 -0.20783331951E+02 -0.81186904305E+02  0.31922336635E+03  0.33004063074E+03  0.00000000000E+00 0. -1.
       -4    1    6    6    0  502 -0.63532907286E+02 -0.11695870137E+02  0.25386743058E+03  0.26195781339E+03  0.00000000000E+00 0.  1.
</event>
<event>
12   0  0.1544783E-01  0.1771996E+03  0.7957747E-01  0.1176063E+00
       -2   -1    0    0    0  501  0.00000000000E+00  0.00000000000E+00  0.10151094736E+03  0.10151094736E+03  0.00000000000E+00 0.  1.
        2   -1    0    0  502    0  0.00000000000E+00  0.00000000000E+00 -0.30972860769E+03  0.30972860769E+03  0.00000000000E+00 0. -1.
        6    2    1    2  502    0 -0.34668036158E+02  0.23077441337E+02 -0.96993849182E+02  0.20245650412E+03  0.17276107273E+03 0.  0.
       24    2    3    3    0    0  0.31966483484E+02  0.45982471070E+02 -0.22485694268E+02  0.99800015069E+02  0.79487060891E+02 0.  0.
       -6    2    1    2    0  501  0.34668036158E+02 -0.23077441337E+02 -0.11122381115E+03  0.20878305093E+03  0.17171250729E+03 0.  0.
      -24    2    5    5    0    0 -0.39970564344E+02 -0.37882602208E+02 -0.82719923101E+02  0.12739094378E+03  0.79706519898E+02 0.  0.
        5    1    3    3  502    0 -0.66634519642E+02 -0.22905029732E+02 -0.74508154915E+02  0.10265648905E+03  0.47000000000E+01 0. -1.
        2    1    4    4  503    0  0.32254851142E+02 -0.13886825592E+02 -0.18760444687E+02  0.39814239062E+02  0.00000000000E+00 0. -1.
       -1    1    4    4    0  503 -0.28836765865E+00  0.59869296662E+02 -0.37252495802E+01  0.59985776007E+02  0.00000000000E+00 0.  1.
       -5    1    5    5    0  501  0.74638600502E+02  0.14805160870E+02 -0.28503888049E+02  0.81392107156E+02  0.47000000000E+01 0.  1.
       13    1    6    6    0    0  0.60371085228E+01 -0.38873821934E+02 -0.68903894886E+02  0.79343351590E+02  0.00000000000E+00 0. -1.
      -14    1    6    6    0    0 -0.46007672867E+02  0.99121972690E+00 -0.13816028215E+02  0.48047592185E+02  0.00000000000E+00 0.  1.
</event>
<event>
12   0  0.1544783E-01  0.2048391E+03  0.7957747E-01  0.1152099E+00
       21   -1    0    0  501  503  0.00000000000E+00  0.00000000000E+00  0.49635095285E+03  0.49635095285E+03  0.00000000000E+00 0.  1.
       21   -1    0    0  503  504  0.00000000000E+00  0.00000000000E+00 -0.86015328484E+02  0.86015328484E+02  0.00000000000E+00 0.  1.
        6    2    1    2  501    0  0.95763224896E+02 -0.52935362297E+02  0.25142727383E+03  0.32311556645E+03  0.17092468350E+03 0.  0.
       24    2    3    3    0    0  0.12792123831E+03 -0.17790033513E+02  0.21445662566E+03  0.26263209111E+03  0.79395481530E+02 0.  0.
       -6    2    1    2    0  504 -0.95763224896E+02  0.52935362297E+02  0.15890835053E+03  0.25925071489E+03  0.17316558976E+03 0.  0.
      -24    2    5    5    0    0 -0.32738784084E+02  0.43280861055E+02  0.98221957586E+01  0.97034621112E+02  0.79838469724E+02 0.  0.
        5    1    3    3  501    0 -0.32158013419E+02 -0.35145328784E+02  0.36970648166E+02  0.60483475331E+02  0.47000000000E+01 0. -1.
        2    1    4    4  502    0  0.38752696266E+02 -0.42481756031E+02  0.64325774677E+02  0.86280219930E+02  0.00000000000E+00 0. -1.
       -1    1    4    4    0  502  0.89168542049E+02  0.24691722518E+02  0.15013085099E+03  0.17635187118E+03  0.00000000000E+00 0.  1.
       -5    1    5    5    0  504 -0.63024440812E+02  0.96545012425E+01  0.14908615478E+03  0.16221609378E+03  0.47000000000E+01 0.  1.
       11    1    6    6    0    0  0.22717391597E+02  0.32953344623E+02  0.18856235949E+01  0.40069419501E+02  0.00000000000E+00 0. -1.
      -12    1    6    6    0    0 -0.55456175681E+02  0.10327516432E+02  0.79365721636E+01  0.56965201611E+02  0.00000000000E+00 0.  1.
</event>
<event>
12   0  0.1544783E-01  0.1905079E+03  0.7957747E-01  0.1163967E+00
       21   -1    0    0  501  503  0.00000000000E+00  0.00000000000E+00  0.12712987089E+03  0.12712987089E+03  0.00000000000E+00 0.  1.
       21   -1    0    0  503  504  0.00000000000E+00  0.00000000000E+00 -0.28348827274E+03  0.28348827274E+03  0.00000000000E+00 0.  1.
        6    2    1    2  501    0  0.59611032930E+02 -0.43995695868E+02 -0.65600892373E+02  0.20148631525E+03  0.17551114395E+03 0.  0.
       24    2    3    3    0    0 -0.31655852994E+02 -0.23827232082E+02 -0.59098659739E+02  0.10767384045E+03  0.80815681135E+02 0.  0.
       -6    2    1    2    0  504 -0.59611032930E+02  0.43995695868E+02 -0.90757509476E+02  0.20913182838E+03  0.17323423337E+03 0.  0.
      -24    2    5    5    0    0  0.17351160534E+02  0.65356532538E+02 -0.37041075172E+02  0.11276269493E+03  0.82285144478E+02 0.  0.
        5    1    3    3  501    0  0.91266885924E+02 -0.20168463786E+02 -0.65022326340E+01  0.93812474794E+02  0.47000000000E+01 0. -1.
      -13    1    4    4    0    0 -0.27602483038E+02 -0.50832410085E+02 -0.22625622283E+02  0.62110786250E+02  0.00000000000E+00 0.  1.
       14    1    4    4    0    0 -0.40533699559E+01  0.27005178003E+02 -0.36473037456E+02  0.45563054202E+02  0.00000000000E+00 0. -1.
       -5    1    5    5    0  504 -0.76962193465E+02 -0.21360836670E+02 -0.53716434304E+02  0.96369133442E+02  0.47000000000E+01 0.  1.
        1    1    6    6  502    0  0.74899307409E+01 -0.19145776306E+02 -0.13118169628E+02  0.24387418626E+02  0.00000000000E+00 0. -1.
       -2    1    6    6    0  502  0.98612297933E+01  0.84502308844E+02 -0.23922905544E+02  0.88375276309E+02  0.00000000000E+00 0.  1.
</event>
<event>
12   0  0.1544783E-01  0.2076472E+03  0.7957747E-01  0.1149898E+00
       21   -1    0    0  501  503  0.00000000000E+00  0.00000000000E+00  0.36214110703E+03  0.36214110703E+03  0.00000000000E+00 0.  1.
       21   -1    0    0  503  504  0.00000000000E+00  0.00000000000E+00 -0.12352649343E+03  0.12352649343E+03  0.00000000000E+00 0.  1.
        6    2    1    2  501    0  0.53184110964E+02 -0.10163255809E+03  0.17055882832E+03  0.26871484139E+03  0.17308849050E+03 0.  0.
       24    2    3    3    0    0 -0.38421832301E+01 -0.61292879185E+02  0.17104027197E+03  0.19870334440E+03  0.80353375955E+02 0.  0.
       -6    2    1    2    0  504 -0.53184110964E+02  0.10163255809E+03  0.68055785285E+02  0.21695275907E+03  0.17111161046E+03 0.  0.
      -24    2    5    5    0    0 -0.59310477895E+02 -0.39770924242E+01  0.25232403951E+02  0.10272989515E+03  0.79894975411E+02 0.  0.
        5    1    3    3  501    0  0.57026294194E+02 -0.40339678901E+02 -0.48144365384E+00  0.70011496994E+02  0.47000000000E+01 0. -1.
      -13    1    4    4    0    0  0.28205160216E+02  0.39163765765E+01  0.48401311127E+02  0.56156531117E+02  0.00000000000E+00 0.  1.
       14    1    4    4    0    0 -0.32047343446E+02 -0.65209255761E+02  0.12263896085E+03  0.14254681328E+03  0.00000000000E+00 0. -1.
       -5    1    5    5    0  504  0.61263669310E+01  0.10560965051E+03  0.42823381334E+02  0.11422286392E+03  0.47000000000E+01 0.  1.
        3    1    6    6  502    0  0.19932395931E+02 -0.39215746331E+01  0.60897406327E+01  0.21207642399E+02  0.00000000000E+00 0. -1.
       -4    1    6    6    0  502 -0.79242873826E+02 -0.55517791119E-01  0.19142663318E+02  0.81522252750E+02  0.00000000000E+00 0.  1.
</event>
<event>
12   0  0.1544783E-01  0.1874517E+03  0.7957747E-01  0.1166647E+00
        1   -1    0    0  502    0  0.00000000000E+00  0.00000000000E+00  0.45113125871E+03  0.45113125871E+03  0.00000000000E+00 0. -1.
       -1   -1    0    0    0  501  0.00000000000E+00  0.00000000000E+00 -0.83578226110E+02  0.83578226110E+02  0.00000000000E+00 0.  1.
        6    2    1    2  502    0 -0.23566615880E+02 -0.64108304376E+02  0.11276592332E+03  0.21755661245E+03  0.17305914043E+03 0.  0.
       24    2    3    3    0    0 -0.14267416157E+02  0.42202572951E+01  0.12088882968E+03  0.14796251024E+03  0.84008485051E+02 0.  0.
       -6    2    1    2    0  501  0.23566615880E+02  0.64108304376E+02  0.25478710928E+03  0.31715287237E+03  0.17608013323E+03 0.  0.
      -24    2    5    5    0    0  0.39082071457E+02  0.10801686532E+03  0.18795157146E+03  0.23555771196E+03  0.83466106573E+02 0.  0.
        5    1    3    3  502    0 -0.92991997230E+01 -0.68328561671E+02 -0.81229063600E+01  0.69594102216E+02  0.47000000000E+01 0. -1.
        2    1    4    4  503    0  0.19422305750E+02  0.34318874010E+02  0.65883172062E+02  0.76782832944E+02  0.00000000000E+00 0. -1.
       -1    1    4    4    0  503 -0.33689721907E+02 -0.30098616715E+02  0.55005657614E+02  0.71179677295E+02  0.00000000000E+00 0.  1.
       -5    1    5    5    0  501 -0.15515455578E+02 -0.43908560940E+02  0.66835537828E+02  0.81595160410E+02  0.47000000000E+01 0.  1.
       11    1    6    6    0    0  0.38566966065E+02  0.11213620344E+03  0.12437626846E+03  0.17184701088E+03  0.00000000000E+00 0. -1.
      -12    1    6    6    0    0  0.51510539199E+00 -0.41193381217E+01  0.63575302998E+02  0.63710701075E+02  0.00000000000E+00 0.  1.
</event>
<event>
12   0  0.1544783E-01  0.2800934E+03  0.7957747E-01  0.1103558E+00
       21   -1    0    0  504  503  0.00000000000E+00  0.00000000000E+00  0.17417335776E+03  0.17417335776E+03  0.00000000000E+00 0. -1.
       21   -1    0    0  501  504  0.00000000000E+00  0.00000000000E+00 -0.79650465488E+03  0.79650465488E+03  0.00000000000E+00 0. -1.
        6    2    1    2  501    0 -0.37223914397E+02  0.20854043320E+03 -0.63374556983E+03  0.69035218225E+03  0.17342997487E+03 0.  0.
       24    2    3    3    0    0  0.41164652344E+02  0.13329429028E+03 -0.33741851966E+03  0.37469642026E+03  0.84168007708E+02 0.  0.
       -6    2    1    2    0  503  0.37223914397E+02 -0.20854043320E+03  0.11414272707E+02  0.28032583038E+03  0.18324178965E+03 0.  0.
      -24    2    5    5    0    0  0.36896640672E+02 -0.61385444979E+02  0.62464399500E+02  0.12449610564E+03  0.80423529932E+02 0.  0.
        5    1    3    3  501    0 -0.78388566741E+02  0.75246142923E+02 -0.29632705016E+03  0.31565576199E+03  0.47000000000E+01 0. -1.
        2    1    4    4  502    0  0.76336327135E+01  0.41957566490E+02 -0.29718530750E+02  0.51979811505E+02  0.00000000000E+00 0. -1.
       -1    1    4    4    0  502  0.33531019631E+02  0.91336723786E+02 -0.30769998891E+03  0.32271660876E+03  0.00000000000E+00 0.  1.
       -5    1    5    5    0  503  0.32727372434E+00 -0.14715498822E+03 -0.51050126793E+02  0.15582972474E+03  0.47000000000E+01 0.  1.
       13    1    6    6    0    0  0.99724446265E+01 -0.75697231089E+02  0.37370519720E+02  0.85006330297E+02  0.00000000000E+00 0. -1.
      -14    1    6    6    0    0  0.26924196046E+02  0.14311786110E+02  0.25093879780E+02  0.39489775345E+02  0.00000000000E+00 0.  1.
</event>
<event>
12   0  0.1544783E-01  0.2461989E+03  0.7957747E-01  0.1123063E+00
       21   -1    0    0  501  503  0.00000000000E+00  0.00000000000E+00  0.31970488307E+03  0.31970488307E+03  0.00000000000E+00 0.  1.
       21   -1    0    0  503  504  0.00000000000E+00  0.00000000000E+00 -0.25186016542E+03  0.25186016542E+03  0.00000000000E+00 0. -1.
        6    2    1    2  501    0  0.16160919680E+03  0.63324635501E+02  0.17650774830E+03  0.30293378992E+03  0.17460341896E+03 0.  0.
       24    2    3    3    0    0  0.13984081511E+03 -0.12776944018E+02  0.89752058845E+02  0.18540101790E+03  0.81236700459E+02 0.  0.
       -6    2    1    2    0  504 -0.16160919680E+03 -0.63324635501E+02 -0.10866303065E+03  0.26863125857E+03  0.17386073995E+03 0.  0.
      -24    2    5    5    0    0 -0.11522809277E+03 -0.10107891240E+02 -0.13362525808E+03  0.19360838552E+03  0.79049443518E+02 0.  0.
        5    1    3    3  501    0  0.21768381694E+02  0.76101579519E+02  0.86755689451E+02  0.11753277202E+03  0.47000000000E+01 0. -1.
      -13    1    4    4    0    0  0.64820020629E+02  0.27068941986E+02  0.67882173583E+02  0.97684963965E+02  0.00000000000E+00 0.  1.
       14    1    4    4    0    0  0.75020794481E+02 -0.39845886005E+02  0.21869885262E+02  0.87716053932E+02  0.00000000000E+00 0. -1.
       -5    1    5    5    0  504 -0.46381104037E+02 -0.53216744261E+02  0.24962227432E+02  0.75022873044E+02  0.47000000000E+01 0.  1.
        3    1    6    6  502    0 -0.10924151564E+03 -0.32248907825E+02 -0.93384328339E+02  0.14728996427E+03  0.00000000000E+00 0. -1.
       -4    1    6    6    0  502 -0.59865771258E+01  0.22141016585E+02 -0.40240929740E+02  0.46318421253E+02  0.00000000000E+00 0.  1.
</event>
<event>
12   0  0.1544783E-01  0.1827505E+03  0.7957747E-01  0.1170881E+00
       21   -1    0    0  504  503  0.00000000000E+00  0.00000000000E+00  0.97069699893E+03  0.97069699893E+03  0.00000000000E+00 0. -1.
       21   -1    0    0  501  504  0.00000000000E+00  0.00000000000E+00 -0.34608060380E+02  0.34608060380E+02  0.00000000000E+00 0. -1.
        6    2    1    2  501    0  0.47933221447E+02 -0.29468976670E+02  0.51084962473E+03  0.54245925962E+03  0.17357619353E+03 0.  0.
       24    2    3    3    0    0 -0.67750326289E+01  0.35921851730E+02  0.34388187563E+03  0.35492453553E+03  0.79877412532E+02 0.  0.
       -6    2    1    2    0  503 -0.47933221447E+02  0.29468976670E+02  0.42523931382E+03  0.46284579969E+03  0.17387278673E+03 0.  0.
      -24    2    5    5    0    0 -0.97063401043E+02  0.56499493635E+01  0.25621058847E+03  0.28515528052E+03  0.78844420302E+02 0.  0.
        5    1    3    3  501    0  0.54708254076E+02 -0.65390828400E+02  0.16696774910E+03  0.18753472410E+03  0.47000000000E+01 0. -1.
        4    1    4    4  502    0  0.22882196043E+02  0.49935130363E+02  0.20640408786E+03  0.21358782649E+03  0.00000000000E+00 0. -1.
       -3    1    4    4    0  502 -0.29657228672E+02 -0.14013278633E+02  0.13747778777E+03  0.14133670904E+03  0.00000000000E+00 0.  1.
       -5    1    5    5    0  503  0.49130179596E+02  0.23819027306E+02  0.16902872535E+03  0.17769051917E+03  0.47000000000E+01 0.  1.
       13    1    6    6    0    0 -0.57028351427E+02 -0.19160989377E+02  0.21266243647E+03  0.22100834433E+03  0.00000000000E+00 0. -1.
      -14    1    6    6    0    0 -0.40035049616E+02  0.24810938741E+02  0.43548152001E+02  0.64146936183E+02  0.00000000000E+00 0.  1.
</event>
<event>
12   0  0.1544783E-01  0.1877389E+03  0.7957747E-01  0.1166393E+00
       21   -1    0    0  504  503  0.00000000000E+00  0.00000000000E+00  0.24554790675E+03  0.24554790675E+03  0.00000000000E+00 0. -1.
       21   -1    0    0  501  504  0.00000000000E+00  0.00000000000E+00 -0.30498656665E+03  0.30498656665E+03  0.00000000000E+00 0.  1.
        6    2    1    2  501    0  0.47291903746E+02 -0.45370349902E+02 -0.23314587328E+03  0.29933745243E+03  0.17592873384E+03 0.  0.
       24    2    3    3    0    0  0.87980715069E+02 -0.18993231832E+02 -0.96981425548E+02  0.15472010025E+03  0.80197028885E+02 0.  0.
       -6    2    1    2    0  503 -0.47291903746E+02  0.45370349902E+02  0.17370721338E+03  0.25119702097E+03  0.16920624856E+03 0.  0.
      -24    2    5    5    0    0 -0.41391349743E+02  0.72643181809E+02  0.18708440432E+03  0.21989745012E+03  0.79774924209E+02 0.  0.
        5    1    3    3  501    0 -0.40688811323E+02 -0.26377118071E+02 -0.13616444773E+03  0.14461735218E+03  0.47000000000E+01 0. -1.
        2    1    4    4  502    0  0.25418145520E+02 -0.14430790663E+02  0.98412678754E+01  0.30841212593E+02  0.00000000000E+00 0. -1.
       -1    1    4    4    0  502  0.62562569549E+02 -0.45624411685E+01 -0.10682269342E+03  0.12387888766E+03  0.00000000000E+00 0.  1.
       -5    1    5    5    0  503 -0.59005540025E+01 -0.27272831907E+02 -0.13377190938E+02  0.31299570846E+02  0.47000000000E+01 0.  1.
       11    1    6    6    0    0 -0.33465646733E+02  0.69312476660E+02  0.74944002577E+02  0.10742798730E+03  0.00000000000E+00 0. -1.
      -12    1    6    6    0    0 -0.79257030097E+01  0.33307051492E+01  0.11214040174E+03  0.11246946283E+03  0.00000000000E+00 0.  1.
</event>
<event>
12   0  0.1544783E-01  0.2052847E+03  0.7957747E-01  0.1151747E+00
       21   -1    0    0  501  503  0.00000000000E+00  0.00000000000E+00  0.11213753804E+03  0.11213753804E+03  0.00000000000E+00 0. -1.
       21   -1    0    0  503  504  0.00000000000E+00  0.00000000000E+00 -0.37556386679E+03  0.37556386679E+03  0.00000000000E+00 0.  1.
        6    2    1    2  501    0  0.91737345803E+02 -0.55519524344E+02 -0.15096526831E+03  0.25363024203E+03  0.17331944276E+03 0.  0.
       24    2    3    3    0    0  0.13120043325E+03 -0.29770595898E+02 -0.11028564742E+03  0.19120217028E+03  0.79344211062E+02 0.  0.
       -6    2    1    2    0  504 -0.91737345803E+02  0.55519524344E+02 -0.11246106044E+03  0.23407116281E+03  0.17505330886E+03 0.  0.
      -24    2    5    5    0    0 -0.43940321453E+02 -0.19584892784E+02 -0.11265334896E+03  0.14492321845E+03  0.77444446791E+02 0.  0.
        5    1    3    3  501    0 -0.39463087443E+02 -0.25748928445E+02 -0.40679620884E+02  0.62428071746E+02  0.47000000000E+01 0. -1.
      -13    1    4    4    0    0  0.82849704457E+02 -0.77898101773E+01 -0.11019962093E+03  0.13808950403E+03  0.00000000000E+00 0.  1.
       14    1    4    4    0    0  0.48350728789E+02 -0.21980785721E+02 -0.86026491094E-01  0.53112666247E+02  0.00000000000E+00 0. -1.
       -5    1    5    5    0  504 -0.47797024350E+02  0.75104417128E+02  0.19228851736E+00  0.89147944361E+02  0.47000000000E+01 0.  1.
        3    1    6    6  502    0 -0.18333432525E+01 -0.40550210354E+02 -0.72446557635E+02  0.83043268363E+02  0.00000000000E+00 0. -1.
       -4    1    6    6    0  502 -0.42106978200E+02  0.20965317569E+02 -0.40206791323E+02  0.61879950084E+02  0.00000000000E+00 0.  1.
</event>
<event>
12   0  0.1544783E-01  0.2481885E+03  0.7957747E-01  0.1121826E+00
       21   -1    0    0  501  503  0.00000000000E+00  0.00000000000E+00  0.47618107093E+03  0.47618107093E+03  0.00000000000E+00 0. -1.
       21   -1    0    0  503  504  0.00000000000E+00  0.00000000000E+00 -0.35484868059E+03  0.35484868059E+03  0.00000000000E+00 0.  1.
        6    2    1    2  501    0  0.10676377972E+03  0.14234059775E+03  0.39274243880E+03  0.46325136916E+03  0.16939851641E+03 0.  0.
       24    2    3    3    0    0  0.95539428329E+02  0.64843800378E+02  0.13630367865E+03  0.19508226696E+03  0.78395773192E+02 0.  0.
       -6    2    1    2    0  504 -0.10676377972E+03 -0.14234059775E+03 -0.27141004846E+03  0.36777838236E+03  0.17302651154E+03 0.  0.
      -24    2    5    5    0    0 -0.25292668101E+02 -0.28756188960E-01 -0.95081846379E+02  0.12693833766E+03  0.80206384856E+02 0.  0.
        5    1    3    3  501    0  0.11224351392E+02  0.77496797377E+02  0.25643876015E+03  0.26816910220E+03  0.47000000000E+01 0. -1.
        2    1    4    4  502    0  0.62609389913E+02  0.50937726141E+01  0.99215944561E+02  0.11742949323E+03  0.00000000000E+00 0. -1.
       -1    1    4    4    0  502  0.32930038416E+02  0.59750027764E+02  0.37087734090E+02  0.77652773729E+02  0.00000000000E+00 0.  1.
       -5    1    5    5    0  504 -0.81471111619E+02 -0.14231184157E+03 -0.17632820208E+03  0.24084004469E+03  0.47000000000E+01 0.  1.
       13    1    6    6    0    0 -0.18356618906E+02 -0.52541396433E+00  0.10482427486E+02  0.21145278516E+02  0.00000000000E+00 0. -1.
      -14    1    6    6    0    0 -0.69360491948E+01  0.49665777537E+00 -0.10556427387E+03  0.10579305915E+03  0.00000000000E+00 0.  1.
</event>
<event>
12   0  0.1544783E-01  0.2445304E+03  0.7957747E-01  0.1124111E+00
       21   -1    0    0  501  503  0.00000000000E+00  0.00000000000E+00  0.99092330768E+03  0.99092330768E+03  0.00000000000E+00 0. -1.
       21   -1    0    0  503  504  0.00000000000E+00  0.00000000000E+00 -0.77678689369E+02  0.77678689369E+02  0.00000000000E+00 0. -1.
        6    2    1    2  501    0 -0.17259071112E+03 -0.81020364634E+01  0.74453479021E+03  0.78366266973E+03  0.17303736455E+03 0.  0.
       24    2    3    3    0    0 -0.13559091160E+03 -0.66187203529E+02  0.40070909470E+03  0.43297609928E+03  0.64303054014E+02 0.  0.
       -6    2    1    2    0  504  0.17259071112E+03  0.81020364634E+01  0.16870982810E+03  0.28493932732E+03  0.15124224805E+03 0.  0.
      -24    2    5    5    0    0  0.14200824519E+03 -0.31296466058E+02  0.82474222806E+02  0.18520869590E+03  0.79714823710E+02 0.  0.
        5    1    3    3  501    0 -0.36999799526E+02  0.58085167066E+02  0.34382569551E+03  0.35068657044E+03  0.47000000000E+01 0. -1.
      -11    1    4    4    0    0 -0.76126530601E+02 -0.57307441282E+01  0.14992060348E+03  0.16823875129E+03  0.00000000000E+00 0.  1.
       12    1    4    4    0    0 -0.59464380997E+02 -0.60456459401E+02  0.25078849123E+03  0.26473734799E+03  0.00000000000E+00 0. -1.
       -5    1    5    5    0  504  0.30582465934E+02  0.39398502522E+02  0.86235605295E+02  0.99730631424E+02  0.47000000000E+01 0.  1.
        3    1    6    6  502    0  0.63843765406E+02 -0.75795704631E+00 -0.49324635329E+01  0.64038504641E+02  0.00000000000E+00 0. -1.
       -4    1    6    6    0  502  0.78164479784E+02 -0.30538509012E+02  0.87406686339E+02  0.12117019126E+03  0.00000000000E+00 0.  1.
</event>
<event>
12   0  0.1544783E-01  0.2024648E+03  0.7957747E-01  0.1153991E+00
       21   -1    0    0  501  503  0.00000000000E+00  0.00000000000E+00  0.27274945126E+03  0.27274945126E+03  0.00000000000E+00 0. -1.
       21   -1    0    0  503  504  0.00000000000E+00  0.00000000000E+00 -0.28186368115E+03  0.28186368115E+03  0.00000000000E+00 0. -1.
        6    2    1    2  501    0  0.10291527008E+03 -0.18744798708E+02  0.18580417058E+03  0.27357009172E+03  0.17138986255E+03 0.  0.
       24    2    3    3    0    0  0.11989801387E+02  0.43265809320E+02  0.85954321783E+02  0.12489313093E+03  0.78704911709E+02 0.  0.
       -6    2    1    2    0  504 -0.10291527008E+03  0.18744798708E+02 -0.19491840046E+03  0.28104304070E+03  0.17334672650E+03 0.  0.
      -24    2    5    5    0    0 -0.43189589570E+02  0.75146542070E+02 -0.91509632205E+02  0.14889245644E+03  0.79262900311E+02 0.  0.
        5    1    3    3  501    0  0.90925468696E+02 -0.62010608029E+02  0.99849848792E+02  0.14867696079E+03  0.47000000000E+01 0. -1.
      -13    1    4    4    0    0 -0.13238303435E+02 -0.18659649771E+02  0.14790720070E+02  0.27243358963E+02  0.00000000000E+00 0.  1.
       14    1    4    4    0    0  0.25228104822E+02  0.61925459091E+02  0.71163601713E+02  0.97649771968E+02  0.00000000000E+00 0. -1.
       -5    1    5    5    0  504 -0.59725680514E+02 -0.56401743362E+02 -0.10340876826E+03  0.13215058426E+03  0.47000000000E+01 0.  1.
        1    1    6    6  502    0 -0.21749922716E+02 -0.13747889581E+02 -0.15973316522E+02  0.30285482443E+02  0.00000000000E+00 0. -1.
       -2    1    6    6    0  502 -0.21439666854E+02  0.88894431651E+02 -0.75536315683E+02  0.11860697400E+03  0.00000000000E+00 0.  1.
</event>
<event>
12   0  0.1544783E-01  0.2317173E+03  0.7957747E-01  0.1132471E+00
       21   -1    0    0  501  503  0.00000000000E+00  0.00000000000E+00  0.40036563903E+03  0.40036563903E+03  0.00000000000E+00 0. -1.
       21   -1    0    0  503  504  0.00000000000E+00  0.00000000000E+00 -0.16731549949E+03  0.16731549949E+03  0.00000000000E+00 0. -1.
        6    2    1    2  501    0 -0.70228014649E+02 -0.13539264085E+03  0.24302384665E+03  0.33574924494E+03  0.17436692404E+03 0.  0.
       24    2    3    3    0    0  0.21744074400E+02 -0.58385279608E+02  0.16087847402E+03  0.19028807798E+03  0.80287132040E+02 0.  0.
       -6    2    1    2    0  504  0.70228014649E+02  0.13539264085E+03 -0.99737071141E+01  0.23193189358E+03  0.17444135744E+03 0.  0.
      -24    2    5    5    0    0  0.61684262379E+02  0.13759995257E+02 -0.28932527331E+02  0.10844495888E+03  0.83240208273E+02 0.  0.
        5    1    3    3  501    0 -0.91972089049E+02 -0.77007361246E+02  0.82145372637E+02  0.14546116697E+03  0.47000000000E+01 0. -1.
      -13    1    4    4    0    0 -0.11764702537E+01  0.10907943223E+02 -0.25842200013E+01  0.11271446253E+02  0.00000000000E+00 0.  1.
       14    1    4    4    0    0  0.22920544654E+02 -0.69293222831E+02  0.16346269402E+03  0.17901663172E+03  0.00000000000E+00 0. -1.
       -5    1    5    5    0  504  0.85437522705E+01  0.12163264560E+03  0.18958820216E+02  0.12348693470E+03  0.47000000000E+01 0.  1.
        1    1    6    6  502    0 -0.15418145933E+02  0.16347648648E+02 -0.21232606946E+02  0.30915828277E+02  0.00000000000E+00 0. -1.
       -2    1    6    6    0  502  0.77102408312E+02 -0.25876533914E+01 -0.76999203848E+01  0.77529130599E+02  0.00000000000E+00 0.  1.
</event>
<event>
12   0  0.1544783E-01  0.2070282E+03  0.7957747E-01  0.1150380E+00
        2   -1    0    0  502    0  0.00000000000E+00  0.00000000000E+00  0.39330943830E+03  0.39330943830E+03  0.00000000000E+00 0.  1.
       -2   -1    0    0    0  501  0.00000000000E+00  0.00000000000E+00 -0.10924173091E+03  0.10924173091E+03  0.00000000000E+00 0. -1.
        6    2    1    2  502    0 -0.10754463849E+03  0.31273534019E+02  0.13022919151E+03  0.24530237946E+03  0.17512775865E+03 0.  0.
       24    2    3    3    0    0 -0.48400061219E+02 -0.49600742999E+02  0.85852961294E+02  0.13562070592E+03  0.78863459714E+02 0.  0.
       -6    2    1    2    0  501  0.10754463849E+03 -0.31273534019E+02  0.15383851588E+03  0.25724878975E+03  0.17310912069E+03 0.  0.
      -24    2    5    5    0    0 -0.51142870844E+01 -0.45597320662E+02  0.71027615681E+02  0.11661828252E+03  0.80309588743E+02 0.  0.
        5    1    3    3  502    0 -0.59144577266E+02  0.80874277018E+02  0.44376230221E+02  0.10968167355E+03  0.47000000000E+01 0. -1.
      -11    1    4    4    0    0 -0.45450998415E+02 -0.21867161658E+02  0.57056859252E+01  0.50759441169E+02  0.00000000000E+00 0.  1.
       12    1    4    4    0    0 -0.29490628050E+01 -0.27733581340E+02  0.80147275369E+02  0.84861264747E+02  0.00000000000E+00 0. -1.
       -5    1    5    5    0  501  0.11265892557E+03  0.14323786643E+02  0.82810900197E+02  0.14063050724E+03  0.47000000000E+01 0.  1.
        3    1    6    6  503    0  0.23341601699E+02 -0.50841677549E+02  0.22873065184E+02  0.60439090470E+02  0.00000000000E+00 0. -1.
       -4    1    6    6    0  503 -0.28455888783E+02  0.52443568867E+01  0.48154550496E+02  0.56179192048E+02  0.00000000000E+00 0.  1.
</event>
<event>
12   0  0.1544783E-01  0.2753356E+03  0.7957747E-01  0.1106109E+00
       21   -1    0    0  501  503  0.00000000000E+00  0.00000000000E+00  0.13749357191E+03  0.13749357191E+03  0.00000000000E+00 0.  1.
       21   -1    0    0  503  504  0.00000000000E+00  0.00000000000E+00 -0.62535121676E+03  0.62535121676E+03  0.00000000000E+00 0. -1.
        6    2    1    2  501    0  0.14603066302E+03 -0.15592672883E+03 -0.11245861334E+03  0.29729768499E+03  0.17349603592E+03 0.  0.
       24    2    3    3    0    0  0.92018712214E+02 -0.12501740646E+03 -0.14568288517E+03  0.22659677072E+03  0.77626014674E+02 0.  0.
       -6    2    1    2    0  504 -0.14603066302E+03  0.15592672883E+03 -0.37539903152E+03  0.46554710369E+03  0.17369966490E+03 0.  0.
      -24    2    5    5    0    0 -0.11076176899E+02  0.70978352916E+02 -0.10439557431E+03  0.15107309250E+03  0.82243753960E+02 0.  0.
        5    1    3    3  501    0  0.54011950807E+02 -0.30909322370E+02  0.33224271832E+02  0.70700914267E+02  0.47000000000E+01 0. -1.
        2    1    4    4  502    0  0.88974301577E+02 -0.10292015093E+03 -0.15142402690E+03  0.20356379769E+03  0.00000000000E+00 0. -1.
       -1    1    4    4    0  502  0.30444106374E+01 -0.22097255533E+02  0.57411417302E+01  0.23032973029E+02  0.00000000000E+00 0.  1.
       -5    1    5    5    0  504 -0.13495448612E+03  0.84948375915E+02 -0.27100345721E+03  0.31447401119E+03  0.47000000000E+01 0.  1.
       13    1    6    6    0    0 -0.37892638551E+02  0.53058924278E+01 -0.36910244851E+02  0.53163622203E+02  0.00000000000E+00 0. -1.
      -14    1    6    6    0    0  0.26816461652E+02  0.65672460489E+02 -0.67485329458E+02  0.97909470299E+02  0.00000000000E+00 0.  1.
</event>
<event>
12   0  0.1544783E-01  0.3469287E+03  0.7957747E-01  0.1072649E+00
       21   -1    0    0  501  503  0.00000000000E+00  0.00000000000E+00  0.65402481243E+03  0.65402481243E+03  0.00000000000E+00 0. -1.
       21   -1    0    0  503  504  0.00000000000E+00  0.00000000000E+00 -0.20346595313E+03  0.20346595313E+03  0.00000000000E+00 0. -1.
        6    2    1    2  501    0  0.18937083749E+03  0.23389973174E+03  0.35928516361E+03  0.49944504465E+03  0.17259526422E+03 0.  0.
       24    2    3    3    0    0  0.86325703793E+02  0.32772462030E+02  0.12829796930E+03  0.17626142480E+03  0.77984354479E+02 0.  0.
       -6    2    1    2    0  504 -0.18937083749E+03 -0.23389973174E+03  0.91273695687E+02  0.35804572091E+03  0.17115914273E+03 0.  0.
      -24    2    5    5    0    0 -0.17143986601E+03 -0.17413635708E+03  0.12645709969E+03  0.28626032821E+03  0.78984042245E+02 0.  0.
        5    1    3    3  501    0  0.10304513370E+03  0.20112726971E+03  0.23098719431E+03  0.32318361985E+03  0.47000000000E+01 0. -1.
      -13    1    4    4    0    0  0.11896750198E+02  0.33403349141E+02  0.10610799157E+02  0.37012233895E+02  0.00000000000E+00 0.  1.
       14    1    4    4    0    0  0.74428953595E+02 -0.63088711106E+00  0.11768717014E+03  0.13924919091E+03  0.00000000000E+00 0. -1.
       -5    1    5    5    0  504 -0.17930971484E+02 -0.59763374657E+02 -0.35183403999E+02  0.71785392705E+02  0.47000000000E+01 0.  1.
        1    1    6    6  502    0 -0.97866397480E+02 -0.59108559423E+02  0.88372736932E+02  0.14450395907E+03  0.00000000000E+00 0. -1.
       -2    1    6    6    0  502 -0.73573468528E+02 -0.11502779766E+03  0.38084362754E+02  0.14175636914E+03  0.00000000000E+00 0.  1.
</event>
<event>
12   0  0.1544783E-01  0.5290320E+03  0.7957747E-01  0.1016513E+00
        2   -1    0    0  502    0  0.00000000000E+00  0.00000000000E+00  0.49331883459E+03  0.49331883459E+03  0.00000000000E+00 0. -1.
       -2   -1    0    0    0  501  0.00000000000E+00  0.00000000000E+00 -0.56816560802E+03  0.56816560802E+03  0.00000000000E+00 0.  1.
        6    2    1    2  502    0 -0.47382099194E+03  0.15590893858E+03 -0.57812177672E+02  0.53303841210E+03  0.17881211186E+03 0.  0.
       24    2    3    3    0    0 -0.27178928211E+03  0.10829487704E+03 -0.10326282933E+03  0.32050191554E+03  0.80380791724E+02 0.  0.
       -6    2    1    2    0  501  0.47382099194E+03 -0.15590893858E+03 -0.17034595763E+02  0.52844603051E+03  0.17364072154E+03 0.  0.
      -24    2    5    5    0    0  0.23196721467E+03 -0.11336667472E+03  0.47496225763E+02  0.27449837700E+03  0.80203964352E+02 0.  0.
        5    1    3    3  502    0 -0.20203170983E+03  0.47614061541E+02  0.45450651654E+02  0.21253649656E+03  0.47000000000E+01 0. -1.
        2    1    4    4  503    0 -0.15705942643E+03  0.10431264598E+03 -0.67474251661E+02  0.20025375447E+03  0.00000000000E+00 0. -1.
       -1    1    4    4    0  503 -0.11472985568E+03  0.39822310617E+01 -0.35788577666E+02  0.12024816106E+03  0.00000000000E+00 0.  1.
       -5    1    5    5    0  501  0.24185377728E+03 -0.42542263865E+02 -0.64530821527E+02  0.25394765351E+03  0.47000000000E+01 0.  1.
       11    1    6    6    0    0  0.87205573556E+01 -0.21767185601E+02  0.21465690797E+02  0.31790476105E+02  0.00000000000E+00 0. -1.
      -12    1    6    6    0    0  0.22324665731E+03 -0.91599489118E+02  0.26030534967E+02  0.24270790090E+03  0.00000000000E+00 0.  1.
</event>
<event>
12   0  0.1544783E-01  0.2119369E+03  0.7957747E-01  0.1146609E+00
       21   -1    0    0  501  503  0.00000000000E+00  0.00000000000E+00  0.22351807125E+03  0.22351807125E+03  0.00000000000E+00 0. -1.
       21   -1    0    0  503  504  0.00000000000E+00  0.00000000000E+00 -0.20410614630E+03  0.20410614630E+03  0.00000000000E+00 0. -1.
        6    2    1    2  501    0  0.88184014031E+02 -0.87831097488E+02 -0.18639013380E+02  0.21275492585E+03  0.17154160905E+03 0.  0.
       24    2    3    3    0    0 -0.71356388669E+00 -0.65261827927E+02 -0.50749036065E+02  0.11546517899E+03  0.80604761266E+02 0.  0.
       -6    2    1    2    0  504 -0.88184014031E+02  0.87831097488E+02  0.38050938339E+02  0.21486929170E+03  0.17096846666E+03 0.  0.
      -24    2    5    5    0    0 -0.34105077688E+02 -0.18705739991E+02  0.22750076446E+02  0.94325376589E+02  0.82865250001E+02 0.  0.
        5    1    3    3  501    0  0.88897577917E+02 -0.22569269560E+02  0.32110022684E+02  0.97289746864E+02  0.47000000000E+01 0. -1.
        4    1    4    4  502    0  0.36536211740E+02 -0.50581586310E+02 -0.39605198733E+02  0.73905097312E+02  0.00000000000E+00 0. -1.
       -3    1    4    4    0  502 -0.37249775627E+02 -0.14680241617E+02 -0.11143837331E+02  0.41560081673E+02  0.00000000000E+00 0.  1.
       -5    1    5    5    0  504 -0.54078936342E+02  0.10653683748E+03  0.15300861893E+02  0.12054391511E+03  0.47000000000E+01 0.  1.
       11    1    6    6    0    0 -0.61910195968E+01  0.32334352789E+02  0.37906586799E+01  0.33139224299E+02  0.00000000000E+00 0. -1.
      -12    1    6    6    0    0 -0.27914058092E+02 -0.51040092780E+02  0.18959417766E+02  0.61186152290E+02  0.00000000000E+00 0.  1.
</event>
<event>
12   0  0.1544783E-01  0.1917383E+03  0.7957747E-01  0.1162904E+00
       21   -1    0    0  504  503  0.00000000000E+00  0.00000000000E+00  0.12519508257E+04  0.12519508257E+04  0.00000000000E+00 0. -1.
       21   -1    0    0  501  504  0.00000000000E+00  0.00000000000E+00 -0.30963012210E+02  0.30963012210E+02  0.00000000000E+00 0.  1.
        6    2    1    2  501    0 -0.20480348178E+02  0.81781974313E+02  0.46111918456E+03  0.49922772236E+03  0.17172559629E+03 0.  0.
       24    2    3    3    0    0 -0.46362153611E+02  0.11367518230E+03  0.31926243925E+03  0.35146957281E+03  0.80813731116E+02 0.  0.
       -6    2    1    2    0  503  0.20480348178E+02 -0.81781974313E+02  0.75986862898E+03  0.78368611560E+03  0.17220876427E+03 0.  0.
      -24    2    5    5    0    0  0.28171932332E+02 -0.93221182495E+01  0.18228113154E+03  0.20150143837E+03  0.80596892544E+02 0.  0.
        5    1    3    3  501    0  0.25881805433E+02 -0.31893207991E+02  0.14185674530E+03  0.14775814954E+03  0.47000000000E+01 0. -1.
        4    1    4    4  502    0 -0.59357721032E+02  0.47200174964E+02  0.13066469848E+03  0.15107765881E+03  0.00000000000E+00 0. -1.
       -3    1    4    4    0  502  0.12995567420E+02  0.66475007340E+02  0.18859774077E+03  0.20039191400E+03  0.00000000000E+00 0.  1.
       -5    1    5    5    0  503 -0.76915841538E+01 -0.72459856064E+02  0.57758749744E+03  0.58218467723E+03  0.47000000000E+01 0.  1.
       11    1    6    6    0    0  0.56487375461E+02 -0.10884842449E+02  0.12163508446E+03  0.13455258137E+03  0.00000000000E+00 0. -1.
      -12    1    6    6    0    0 -0.28315443130E+02  0.15627241999E+01  0.60646047084E+02  0.66948856999E+02  0.00000000000E+00 0.  1.
</event>
<event>
12   0  0.1544783E-01  0.2114455E+03  0.7957747E-01  0.1146981E+00
       21   -1    0    0  504  503  0.00000000000E+00  0.00000000000E+00  0.11231673969E+03  0.11231673969E+03  0.00000000000E+00 0.  1.
       21   -1    0    0  501  504  0.00000000000E+00  0.00000000000E+00 -0.51362236818E+03  0.51362236818E+03  0.00000000000E+00 0. -1.
        6    2    1    2  501    0 -0.97328944725E+02 -0.62674666943E+02 -0.35511256079E+03  0.41329664010E+03  0.17694107645E+03 0.  0.
       24    2    3    3    0    0 -0.33724274832E+02 -0.10803250449E+02 -0.30465243793E+03  0.31683674232E+03  0.79488215575E+02 0.  0.
       -6    2    1    2    0  503  0.97328944725E+02  0.62674666943E+02 -0.46193067706E+02  0.21264246776E+03  0.17228459662E+03 0.  0.
      -24    2    5    5    0    0  0.98332207605E+02  0.38102720533E+02 -0.88867877359E+02  0.16316503386E+03  0.87202570392E+02 0.  0.
        5    1    3    3  501    0 -0.63604669893E+02 -0.51871416494E+02 -0.50460122857E+02  0.96459897782E+02  0.47000000000E+01 0. -1.
        2    1    4    4  502    0 -0.15048743018E+02  0.15225834601E+02 -0.26498601211E+03  0.26584935080E+03  0.00000000000E+00 0. -1.
       -1    1    4    4    0  502 -0.18675531814E+02 -0.26029085050E+02 -0.39666425819E+02  0.50987391523E+02  0.00000000000E+00 0.  1.
       -5    1    5    5    0  503 -0.10032628800E+01  0.24571946410E+02  0.42674809653E+02  0.49477433904E+02  0.47000000000E+01 0.  1.
       11    1    6    6    0    0  0.47475615708E+01  0.95409640044E+01 -0.60299010930E+02  0.61233488012E+02  0.00000000000E+00 0. -1.
      -12    1    6    6    0    0  0.93584646035E+02  0.28561756528E+02 -0.28568866429E+02  0.10193154585E+03  0.00000000000E+00 0.  1.
</event>
<event>
12   0  0.1544783E-01  0.2471202E+03  0.7957747E-01  0.1122489E+00
       21   -1    0    0  504  503  0.00000000000E+00  0.00000000000E+00  0.56945731551E+03  0.56945731551E+03  0.00000000000E+00 0. -1.
       21   -1    0    0  501  504  0.00000000000E+00  0.00000000000E+00 -0.18391561673E+03  0.18391561673E+03  0.00000000000E+00 0. -1.
        6    2    1    2  501    0  0.11740349270E+03 -0.12880247227E+03 -0.51760911800E+02  0.25107622532E+03  0.17316587993E+03 0.  0.
       24    2    3    3    0    0  0.13236781895E+03 -0.98408019087E+02 -0.87078560769E+02  0.20191139874E+03  0.77331490882E+02 0.  0.
       -6    2    1    2    0  503 -0.11740349270E+03  0.12880247227E+03  0.43730261059E+03  0.50229670692E+03  0.17519917694E+03 0.  0.
      -24    2    5    5    0    0 -0.50388836519E+02  0.95534119938E+02  0.13417077776E+03  0.19003280334E+03  0.80279921656E+02 0.  0.
        5    1    3    3  501    0 -0.14964326246E+02 -0.30394453179E+02  0.35317648969E+02  0.49164826581E+02  0.47000000000E+01 0. -1.
      -13    1    4    4    0    0 -0.72508360058E+01  0.35910962891E+01  0.46478388127E+00  0.81047282124E+01  0.00000000000E+00 0.  1.
       14    1    4    4    0    0  0.13961865495E+03 -0.10199911538E+03 -0.87543344650E+02  0.19380667053E+03  0.00000000000E+00 0. -1.
       -5    1    5    5    0  503 -0.67014656181E+02  0.33268352328E+02  0.30313183283E+03  0.31226390359E+03  0.47000000000E+01 0.  1.
        1    1    6    6  502    0  0.20943960580E+02  0.10491672721E+02  0.26918068304E+02  0.35683428682E+02  0.00000000000E+00 0. -1.
       -2    1    6    6    0  502 -0.71332797099E+02  0.85042447217E+02  0.10725270945E+03  0.15434937465E+03  0.00000000000E+00 0.  1.
</event>
<event>
12   0  0.1544783E-01  0.2011789E+03  0.7957747E-01  0.1155027E+00
        1   -1    0    0  502    0  0.00000000000E+00  0.00000000000E+00  0.16950674199E+03  0.16950674199E+03  0.00000000000E+00 0. -1.
       -1   -1    0    0    0  501  0.00000000000E+00  0.00000000000E+00 -0.24675872028E+03  0.24675872028E+03  0.00000000000E+00 0.  1.
        6    2    1    2  502    0 -0.73291762332E+02 -0.69340208528E+02 -0.12422485828E+01  0.20153934916E+03  0.17446151190E+03 0.  0.
       24    2    3    3    0    0 -0.16036782518E+02 -0.64282869496E+02 -0.58676891156E+02  0.12014808699E+03  0.81259581259E+02 0.  0.
       -6    2    1    2    0  501  0.73291762332E+02  0.69340208528E+02 -0.76009729709E+02  0.21472611310E+03  0.17363777726E+03 0.  0.
      -24    2    5    5    0    0 -0.21262949703E+02  0.29993184132E+02 -0.60523622069E+02  0.11104057203E+03  0.85528917240E+02 0.  0.
        5    1    3    3  502    0 -0.57254979814E+02 -0.50573390315E+01  0.57434642574E+02  0.81391262179E+02  0.47000000000E+01 0. -1.
        2    1    4    4  503    0 -0.40168676819E+02 -0.69088019046E+01 -0.34413262140E+02  0.53343479004E+02  0.00000000000E+00 0. -1.
       -1    1    4    4    0  503  0.24131894301E+02 -0.57374067592E+02 -0.24263629016E+02  0.66804607982E+02  0.00000000000E+00 0.  1.
       -5    1    5    5    0  501  0.94554712035E+02  0.39347024396E+02 -0.15486107640E+02  0.10368554107E+03  0.47000000000E+01 0.  1.
       11    1    6    6    0    0 -0.11980140704E+02 -0.15191579667E+02 -0.61939146749E+02  0.64890413499E+02  0.00000000000E+00 0. -1.
      -12    1    6    6    0    0 -0.92828089994E+01  0.45184763799E+02  0.14155246794E+01  0.46150158533E+02  0.00000000000E+00 0.  1.
</event>
<event>
12   0  0.1544783E-01  0.2222240E+03  0.7957747E-01  0.1139055E+00
       21   -1    0    0  501  503  0.00000000000E+00  0.00000000000E+00  0.12128879377E+03  0.12128879377E+03  0.00000000000E+00 0. -1.
       21   -1    0    0  503  504  0.00000000000E+00  0.00000000000E+00 -0.40260230325E+03  0.40260230325E+03  0.00000000000E+00 0.  1.
        6    2    1    2  501    0  0.10970708019E+03 -0.86127111881E+02 -0.17035234310E+03  0.28000612160E+03  0.17300284532E+03 0.  0.
       24    2    3    3    0    0  0.81698382751E+02 -0.10462831874E+03 -0.18706859220E+03  0.24221320201E+03  0.77787313949E+02 0.  0.
       -6    2    1    2    0  504 -0.10970708019E+03  0.86127111881E+02 -0.11096116637E+03  0.24388497542E+03  0.16647515715E+03 0.  0.
      -24    2    5    5    0    0 -0.34214656678E+02  0.86764641194E+02 -0.20345588933E+02  0.12584775533E+03  0.82005907346E+02 0.  0.
        5    1    3    3  501    0  0.28008697438E+02  0.18501206860E+02  0.16716249102E+02  0.37792919595E+02  0.47000000000E+01 0. -1.
        4    1    4    4  502    0  0.31056625212E+02 -0.95433220523E+02 -0.10427270041E+03  0.14472321721E+03  0.00000000000E+00 0. -1.
       -3    1    4    4    0  502  0.50641757539E+02 -0.91950982175E+01 -0.82795891796E+02  0.97489984799E+02  0.00000000000E+00 0.  1.
       -5    1    5    5    0  504 -0.75492423512E+02 -0.63752931269E+00 -0.90615577439E+02  0.11803722009E+03  0.47000000000E+01 0.  1.
       13    1    6    6    0    0 -0.52212002292E+02  0.36883345198E+02  0.10072518887E+02  0.64714217704E+02  0.00000000000E+00 0. -1.
      -14    1    6    6    0    0  0.17997345614E+02  0.49881295996E+02 -0.30418107820E+02  0.61133537627E+02  0.00000000000E+00 0.  1.
</event>
<event>
12   0  0.1544783E-01  0.1860099E+03  0.7957747E-01  0.1167931E+00
       21   -1    0    0  504  503  0.00000000000E+00  0.00000000000E+00  0.19159613028E+03  0.19159613028E+03  0.00000000000E+00 0.  1.
       21   -1    0    0  501  504  0.00000000000E+00  0.00000000000E+00 -0.48972855253E+03  0.48972855253E+03  0.00000000000E+00 0.  1.
        6    2    1    2  501    0 -0.64907932110E+02 -0.21897724355E+02 -0.41976318308E+03  0.45907765438E+03  0.17279644933E+03 0.  0.
       24    2    3    3    0    0 -0.73135097983E+02 -0.62668033486E+02 -0.38426720507E+03  0.40419633862E+03  0.80233224308E+02 0.  0.
       -6    2    1    2    0  503  0.64907932110E+02  0.21897724355E+02  0.12163076083E+03  0.22224702842E+03  0.17293683725E+03 0.  0.
      -24    2    5    5    0    0  0.93917963983E+02  0.10439965372E+02  0.32162593380E+02  0.12738130660E+03  0.79132724090E+02 0.  0.
        5    1    3    3  501    0  0.82271658725E+01  0.40770309131E+02 -0.35495978011E+02  0.54881315763E+02  0.47000000000E+01 0. -1.
        2    1    4    4  502    0  0.17637956048E+02 -0.97124310304E+01 -0.68743558719E+02  0.71631736510E+02  0.00000000000E+00 0. -1.
       -1    1    4    4    0  502 -0.90773054031E+02 -0.52955602456E+02 -0.31552364635E+03  0.33256460211E+03  0.00000000000E+00 0.  1.
       -5    1    5    5    0  503 -0.29010031873E+02  0.11457758983E+02  0.89468167453E+02  0.94865721826E+02  0.47000000000E+01 0.  1.
       13    1    6    6    0    0  0.24956287938E+02 -0.25401244124E+02 -0.12503728583E+02  0.37740995472E+02  0.00000000000E+00 0. -1.
      -14    1    6    6    0    0  0.68961676045E+02  0.35841209496E+02  0.44666321963E+02  0.89640311126E+02  0.00000000000E+00 0.  1.
</event>
<event>
12   0  0.1544783E-01  0.1890919E+03  0.7957747E-01  0.1165202E+00
       21   -1    0    0  501  503  0.00000000000E+00  0.00000000000E+00  0.86311430834E+03  0.86311430834E+03  0.00000000000E+00 0.  1.
       21   -1    0    0  503  504  0.00000000000E+00  0.00000000000E+00 -0.42316763941E+02  0.42316763941E+02  0.00000000000E+00 0. -1.
        6    2    1    2  501    0 -0.55397717856E+02  0.34242743269E+02  0.51089636844E+03  0.54476677490E+03  0.17752258204E+03 0.  0.
       24    2    3    3    0    0 -0.10170456808E+02 -0.18942559297E+02  0.43004389234E+03  0.43783972293E+03  0.79395307742E+02 0.  0.
       -6    2    1    2    0  504  0.55397717856E+02 -0.34242743269E+02  0.30990117596E+03  0.36066429739E+03  0.17262248966E+03 0.  0.
      -24    2    5    5    0    0  0.78940022904E+02  0.13753701596E+02  0.12897500006E+03  0.17194686319E+03  0.80687555387E+02 0.  0.
        5    1    3    3  501    0 -0.45227261048E+02  0.53185302565E+02  0.80852476103E+02  0.10692705197E+03  0.47000000000E+01 0. -1.
        4    1    4    4  502    0  0.30691402480E+02 -0.17762623757E+02  0.28321779198E+03  0.28542913426E+03  0.00000000000E+00 0. -1.
       -3    1    4    4    0  502 -0.40861859288E+02 -0.11799355393E+01  0.14682610036E+03  0.15241058867E+03  0.00000000000E+00 0.  1.
       -5    1    5    5    0  504 -0.23542305048E+02 -0.47996444865E+02  0.18092617590E+03  0.18871743420E+03  0.47000000000E+01 0.  1.
       11    1    6    6    0    0  0.86008336380E+02 -0.11109169676E+02  0.88385517443E+02  0.12382587481E+03  0.00000000000E+00 0. -1.
      -12    1    6    6    0    0 -0.70683134756E+01  0.24862871272E+02  0.40589482619E+02  0.48120988379E+02  0.00000000000E+00 0.  1.
</event>
<event>
12   0  0.1544783E-01  0.2558216E+03  0.7957747E-01  0.1117193E+00
        1   -1    0    0  502    0  0.00000000000E+00  0.00000000000E+00  0.55473343923E+03  0.55473343923E+03  0.00000000000E+00 0. -1.
       -1   -1    0    0    0  501  0.00000000000E+00  0.00000000000E+00 -0.12973415458E+03  0.12973415458E+03  0.00000000000E+00 0.  1.
        6    2    1    2  502    0  0.68642265570E+02 -0.17554115672E+03  0.10950743721E+03  0.27832577354E+03  0.17305172373E+03 0.  0.
       24    2    3    3    0    0  0.85720846032E+02 -0.14402397363E+03  0.25203968503E+02  0.18659695812E+03  0.78052651010E+02 0.  0.
       -6    2    1    2    0  501 -0.68642265570E+02  0.17554115672E+03  0.31549184744E+03  0.40614182027E+03  0.17288613028E+03 0.  0.
      -24    2    5    5    0    0  0.85590507314E+00  0.12577548697E+03  0.27204532386E+03  0.31014021601E+03  0.79737630123E+02 0.  0.
        5    1    3    3  502    0 -0.17078580462E+02 -0.31517183097E+02  0.84303468708E+02  0.91728815414E+02  0.47000000000E+01 0. -1.
        2    1    4    4  503    0  0.90104132212E+02 -0.86996600632E+02  0.31238208711E+01  0.12528735539E+03  0.00000000000E+00 0. -1.
       -1    1    4    4    0  503 -0.43832861807E+01 -0.57027372993E+02  0.22080147631E+02  0.61309602736E+02  0.00000000000E+00 0.  1.
       -5    1    5    5    0  501 -0.69498170643E+02  0.49765669754E+02  0.43446523582E+02  0.96001604258E+02  0.47000000000E+01 0.  1.
       11    1    6    6    0    0 -0.26656233692E+02  0.11411919553E+03  0.19502172946E+03  0.22752410981E+03  0.00000000000E+00 0. -1.
      -12    1    6    6    0    0  0.27512138765E+02  0.11656291436E+02  0.77023594398E+02  0.82616106199E+02  0.00000000000E+00 0.  1.
</event>
<event>
12   0  0.1544783E-01  0.1947302E+03  0.7957747E-01  0.1160355E+00
       21   -1    0    0  501  503  0.00000000000E+00  0.00000000000E+00  0.44451367420E+03  0.44451367420E+03  0.00000000000E+00 0.  1.
       21   -1    0    0  503  504  0.00000000000E+00  0.00000000000E+00 -0.19356481883E+03  0.19356481883E+03  0.00000000000E+00 0.  1.
        6    2    1    2  501    0 -0.85592509155E+02  0.24811169767E+02  0.36469226648E+03  0.41342509532E+03  0.17314210477E+03 0.  0.
       24    2    3    3    0    0 -0.48824097009E+02  0.40876004325E+00  0.35561562251E+03  0.36812753250E+03  0.81678942670E+02 0.  0.
       -6    2    1    2    0  504  0.85592509155E+02 -0.24811169767E+02 -0.11374341111E+03  0.22465339771E+03  0.17201719031E+03 0.  0.
      -24    2    5    5    0    0  0.11770033307E+03  0.98627736870E+01 -0.10243058877E+03  0.17583470600E+03  0.80468475871E+02 0.  0.
        5    1    3    3  501    0 -0.36768412146E+02  0.24402409724E+02  0.90766439650E+01  0.45297562824E+02  0.47000000000E+01 0. -1.
      -11    1    4    4    0    0 -0.35862501270E+02  0.34252693677E+02  0.27899486062E+03  0.28336813207E+03  0.00000000000E+00 0.  1.
       12    1    4    4    0    0 -0.12961595738E+02 -0.33843933634E+02  0.76620761893E+02  0.84759400428E+02  0.00000000000E+00 0. -1.
       -5    1    5    5    0  504 -0.32107823912E+02 -0.34673943454E+02 -0.11312822340E+02  0.48818691711E+02  0.47000000000E+01 0.  1.
        3    1    6    6  502    0  0.10388189574E+03 -0.12236848256E+02 -0.47186711507E+02  0.11475092357E+03  0.00000000000E+00 0. -1.
       -4    1    6    6    0  502  0.13818437324E+02  0.22099621943E+02 -0.55243877264E+02  0.61083782424E+02  0.00000000000E+00 0.  1.
</event>
<event>
12   0  0.1544783E-01  0.1829089E+03  0.7957747E-01  0.1170736E+00
       21   -1    0    0  504  503  0.00000000000E+00  0.00000000000E+00  0.19420121138E+03  0.19420121138E+03  0.00000000000E+00 0. -1.
       21   -1    0    0  501  504  0.00000000000E+00  0.00000000000E+00 -0.24295271955E+03  0.24295271955E+03  0.00000000000E+00 0. -1.
        6    2    1    2  501    0 -0.19826905394E+02  0.54172291158E+02 -0.14321079226E+03  0.23129424260E+03  0.17222065014E+03 0.  0.
       24    2    3    3    0    0 -0.45626456377E+02  0.62904817681E+02 -0.16346904783E+03  0.19702529501E+03  0.77833461116E+02 0.  0.
       -6    2    1    2    0  503  0.19826905394E+02 -0.54172291158E+02  0.94459284095E+02  0.20585968833E+03  0.17357393704E+03 0.  0.
      -24    2    5    5    0    0  0.12036751216E+02  0.10928118724E+02 -0.93620339374E+01  0.82978827545E+02  0.80830260315E+02 0.  0.
        5    1    3    3  501    0  0.25799550983E+02 -0.87325265232E+01  0.20258255565E+02  0.34268947590E+02  0.47000000000E+01 0. -1.
        4    1    4    4  502    0 -0.42920674425E+02  0.29357764328E+02 -0.15328043623E+03  0.16186091174E+03  0.00000000000E+00 0. -1.
       -3    1    4    4    0  502 -0.27057819523E+01  0.33547053353E+02 -0.10188611598E+02  0.35164383273E+02  0.00000000000E+00 0.  1.
       -5    1    5    5    0  503  0.77901541777E+01 -0.65100409882E+02  0.10382131803E+03  0.12288086078E+03  0.47000000000E+01 0.  1.
       13    1    6    6    0    0 -0.32989622408E+02  0.14456384537E+02  0.30297935015E+01  0.36145288616E+02  0.00000000000E+00 0. -1.
      -14    1    6    6    0    0  0.45026373624E+02 -0.35282658131E+01 -0.12391827439E+02  0.46833538929E+02  0.00000000000E+00 0.  1.
</event>
<event>
12   0  0.1544783E-01  0.2187369E+03  0.7957747E-01  0.1141565E+00
       -1   -1    0    0    0  501  0.00000000000E+00  0.00000000000E+00  0.30178471910E+03  0.30178471910E+03  0.00000000000E+00 0.  1.
        1   -1    0    0  502    0  0.00000000000E+00  0.00000000000E+00 -0.19292800982E+03  0.19292800982E+03  0.00000000000E+00 0. -1.
        6    2    1    2  502    0 -0.10298995136E+03  0.85501506479E+02  0.15907421507E+03  0.27136269032E+03  0.17440087759E+03 0.  0.
       24    2    3    3    0    0 -0.34065684376E+02  0.23248367134E+02  0.15165961749E+03  0.17807242183E+03  0.83714935426E+02 0.  0.
       -6    2    1    2    0  501  0.10298995136E+03 -0.85501506479E+02 -0.50217505794E+02  0.22335003860E+03  0.17159838042E+03 0.  0.
      -24    2    5    5    0    0  0.48580604503E+02  0.17558089322E+02 -0.47256938814E+02  0.10667736712E+03  0.80489010157E+02 0.  0.
        5    1    3    3  502    0 -0.68924266986E+02  0.62253139345E+02  0.74145975867E+01  0.93290268492E+02  0.47000000000E+01 0. -1.
      -13    1    4    4    0    0 -0.52117868096E+02 -0.11768442361E+02  0.78103578469E+02  0.94630530909E+02  0.00000000000E+00 0.  1.
       14    1    4    4    0    0  0.18052183719E+02  0.35016809496E+02  0.73556039017E+02  0.83441890920E+02  0.00000000000E+00 0. -1.
       -5    1    5    5    0  501  0.54409346859E+02 -0.10305959580E+03 -0.29605669797E+01  0.11667267148E+03  0.47000000000E+01 0.  1.
        1    1    6    6  503    0  0.23540153379E+02 -0.31671015218E+02 -0.27152956733E+02  0.47900679383E+02  0.00000000000E+00 0. -1.
       -2    1    6    6    0  503  0.25040451125E+02  0.49229104540E+02 -0.20103982081E+02  0.58776687741E+02  0.00000000000E+00 0.  1.
</event>
<event>
12   0  0.1544783E-01  0.1946103E+03  0.7957747E-01  0.1160456E+00
        2   -1    0    0  502    0  0.00000000000E+00  0.00000000000E+00  0.46939868129E+03  0.46939868129E+03  0.00000000000E+00 0. -1.
       -2   -1    0    0    0  501  0.00000000000E+00  0.00000000000E+00 -0.10701260561E+03  0.10701260561E+03  0.00000000000E+00 0.  1.
        6    2    1    2  502    0 -0.77441773599E+02 -0.43847791013E+02  0.32424153245E+03  0.37823058778E+03  0.17322225345E+03 0.  0.
       24    2    3    3    0    0  0.79585513736E+01  0.93323279917E+01  0.81636182565E+02  0.11555058025E+03  0.80851959817E+02 0.  0.
       -6    2    1    2    0  501  0.77441773599E+02  0.43847791013E+02  0.38144543229E+02  0.19818069912E+03  0.17291826466E+03 0.  0.
      -24    2    5    5    0    0  0.42974058338E+02 -0.16414445816E+02  0.74043240019E+02  0.11988403882E+03  0.82301747556E+02 0.  0.
        5    1    3    3  502    0 -0.85400324973E+02 -0.53180119005E+02  0.24260534989E+03  0.26268000753E+03  0.47000000000E+01 0. -1.
        2    1    4    4  503    0  0.12398400313E+02 -0.24362519097E+02  0.23227147640E+00  0.27336909429E+02  0.00000000000E+00 0. -1.
       -1    1    4    4    0  503 -0.44398489391E+01  0.33694847089E+02  0.81403911089E+02  0.88213670820E+02  0.00000000000E+00 0.  1.
       -5    1    5    5    0  501  0.34467715262E+02  0.60262236829E+02 -0.35898696790E+02  0.78296660301E+02  0.47000000000E+01 0.  1.
       13    1    6    6    0    0 -0.18170370242E+02 -0.26478849496E+02  0.21580302255E+02  0.38691100667E+02  0.00000000000E+00 0. -1.
      -14    1    6    6    0    0  0.61144428579E+02  0.10064403681E+02  0.52462937764E+02  0.81192938157E+02  0.00000000000E+00 0.  1.
</event>
<event>
12   0  0.1544783E-01  0.2022731E+03  0.7957747E-01  0.1154145E+00
       21   -1    0    0  501  503  0.00000000000E+00  0.00000000000E+00  0.27238840800E+03  0.27238840800E+03  0.00000000000E+00 0.  1.
       21   -1    0    0  503  504  0.00000000000E+00  0.00000000000E+00 -0.14950437703E+03  0.14950437703E+03  0.00000000000E+00 0.  1.
        6    2    1    2  501    0  0.21086360074E+02 -0.10323832530E+03  0.69788313903E+02  0.21397388199E+03  0.17266043851E+03 0.  0.
       24    2    3    3    0    0 -0.43659105777E+02 -0.35570930460E+02  0.68633484157E+02  0.12019608449E+03  0.81025520473E+02 0.  0.
       -6    2    1    2    0  504 -0.21086360074E+02  0.10323832530E+03  0.53095717060E+02  0.20791890304E+03  0.17119675428E+03 0.  0.
      -24    2    5    5    0    0 -0.56352558878E+02 -0.57006624445E+01  0.36624874002E+02  0.92139861319E+02  0.62771523829E+02 0.  0.
        5    1    3    3  501    0  0.64745465851E+02 -0.67667394845E+02  0.11548297461E+01  0.93777797506E+02  0.47000000000E+01 0. -1.
        2    1    4    4  502    0 -0.29610999632E+02  0.13758953352E+02  0.59823138147E+02  0.68153708294E+02  0.00000000000E+00 0. -1.
       -1    1    4    4    0  502 -0.14048106145E+02 -0.49329883811E+02  0.88103460098E+01  0.52042376194E+02  0.00000000000E+00 0.  1.
       -5    1    5    5    0  504  0.35266198804E+02  0.10893898775E+03  0.16470843058E+02  0.11577904172E+03  0.47000000000E+01 0.  1.
       11    1    6    6    0    0 -0.45910382797E+02 -0.63735707256E+01  0.54427724166E+02  0.71489599316E+02  0.00000000000E+00 0. -1.
      -12    1    6    6    0    0 -0.10442176081E+02  0.67290828106E+00 -0.17802850164E+02  0.20650262004E+02  0.00000000000E+00 0.  1.
</event>
<event>
12   0  0.1544783E-01  0.4638198E+03  0.7957747E-01  0.1033375E+00
       -2   -1    0    0    0  501  0.00000000000E+00  0.00000000000E+00  0.51980034910E+03  0.51980034910E+03  0.00000000000E+00 0. -1.
        2   -1    0    0  502    0  0.00000000000E+00  0.00000000000E+00 -0.46946394646E+03  0.46946394646E+03  0.00000000000E+00 0.  1.
        6    2    1    2  502    0  0.35268747395E+03  0.24585992112E+03  0.19538379085E+03  0.50327235107E+03  0.17399045529E+03 0.  0.
       24    2    3    3    0    0  0.25729701420E+03  0.12034333144E+03  0.71037207558E+02  0.30242933558E+03  0.75716228263E+02 0.  0.
       -6    2    1    2    0  501 -0.35268747395E+03 -0.24585992112E+03 -0.14504738821E+03  0.48599194448E+03  0.17410878835E+03 0.  0.
      -24    2    5    5    0    0 -0.63900336426E+02 -0.45495823992E+02 -0.48753341449E+02  0.12152189680E+03  0.78978225497E+02 0.  0.
        5    1    3    3  502    0  0.95390459754E+02  0.12551658968E+03  0.12434658329E+03  0.20084301550E+03  0.47000000000E+01 0. -1.
      -13    1    4    4    0    0  0.19088748822E+03  0.10471036642E+03  0.83298761979E+02  0.23311151354E+03  0.00000000000E+00 0.  1.
       14    1    4    4    0    0  0.66409525976E+02  0.15632965018E+02 -0.12261554422E+02  0.69317822041E+02  0.00000000000E+00 0. -1.
       -5    1    5    5    0  501 -0.28878713753E+03 -0.20036409713E+03 -0.96294046758E+02  0.36447004769E+03  0.47000000000E+01 0.  1.
        1    1    6    6  503    0 -0.51927778119E+02  0.11103566249E+02 -0.18461519819E+02  0.56219311965E+02  0.00000000000E+00 0. -1.
       -2    1    6    6    0  503 -0.11972558308E+02 -0.56599390241E+02 -0.30291821631E+02  0.65302584832E+02  0.00000000000E+00 0.  1.
</event>
<event>
12   0  0.1544783E-01  0.2013926E+03  0.7957747E-01  0.1154854E+00
       21   -1    0    0  504  503  0.00000000000E+00  0.00000000000E+00  0.44025497861E+03  0.44025497861E+03  0.00000000000E+00 0.  1.
       21   -1    0    0  501  504  0.00000000000E+00  0.00000000000E+00 -0.95196138353E+02  0.95196138353E+02  0.00000000000E+00 0. -1.
        6    2    1    2  501    0  0.48383383342E+02 -0.90053488624E+02  0.12101336336E+03  0.23495362407E+03  0.17351769004E+03 0.  0.
       24    2    3    3    0    0 -0.19997367908E+02 -0.67772641246E+02  0.86649068206E+01  0.10147467822E+03  0.72311852997E+02 0.  0.
       -6    2    1    2    0  503 -0.48383383342E+02  0.90053488624E+02  0.22404547690E+03  0.30049749288E+03  0.17219693643E+03 0.  0.
      -24    2    5    5    0    0 -0.93109530121E+02  0.35976804635E+02  0.12305488571E+03  0.17742879067E+03  0.79842067797E+02 0.  0.
        5    1    3    3  501    0  0.68380751250E+02 -0.22280847378E+02  0.11234845654E+03  0.13347894586E+03  0.47000000000E+01 0. -1.
        4    1    4    4  502    0 -0.43911643545E+02 -0.55456154317E+02 -0.57258023090E+01  0.70967614463E+02  0.00000000000E+00 0. -1.
       -3    1    4    4    0  502  0.23914275637E+02 -0.12316486929E+02  0.14390709130E+02  0.30507063752E+02  0.00000000000E+00 0.  1.
       -5    1    5    5    0  503  0.44726146779E+02  0.54076683989E+02  0.10099059119E+03  0.12306870222E+03  0.47000000000E+01 0.  1.
       11    1    6    6    0    0 -0.72141270656E+02  0.53632968187E+02  0.11987060091E+03  0.14983263720E+03  0.00000000000E+00 0. -1.
      -12    1    6    6    0    0 -0.20968259465E+02 -0.17656163551E+02  0.31842847959E+01  0.27596153464E+02  0.00000000000E+00 0.  1.
</event>
<event>
12   0  0.1544783E-01  0.2051944E+03  0.7957747E-01  0.1151819E+00
       21   -1    0    0  504  503  0.00000000000E+00  0.00000000000E+00  0.10244263992E+03  0.10244263992E+03  0.00000000000E+00 0.  1.
       21   -1    0    0  501  504  0.00000000000E+00  0.00000000000E+00 -0.41716820453E+03  0.41716820453E+03  0.00000000000E+00 0.  1.
        6    2    1    2  501    0  0.55293039896E+02  0.93472779796E+02 -0.12020741375E+03  0.23687058664E+03  0.17281021865E+03 0.  0.
       24    2    3    3    0    0  0.40438209140E+02  0.56788523280E+02 -0.15230551307E+03  0.18569658296E+03  0.80162749928E+02 0.  0.
       -6    2    1    2    0  503 -0.55293039896E+02 -0.93472779796E+02 -0.19451815086E+03  0.28274025781E+03  0.17409842489E+03 0.  0.
      -24    2    5    5    0    0  0.11640855351E+02 -0.83351646049E+02 -0.55966809263E+02  0.12846405116E+03  0.79295159297E+02 0.  0.
        5    1    3    3  501    0  0.14854830756E+02  0.36684256516E+02  0.32098099318E+02  0.51174003681E+02  0.47000000000E+01 0. -1.
        4    1    4    4  502    0  0.28821124976E+02  0.25744515837E+02 -0.14716432654E+03  0.15215379176E+03  0.00000000000E+00 0. -1.
       -3    1    4    4    0  502  0.11617084165E+02  0.31044007444E+02 -0.51411865326E+01  0.33542791202E+02  0.00000000000E+00 0.  1.
       -5    1    5    5    0  503 -0.66933895247E+02 -0.10121133748E+02 -0.13855134160E+03  0.15427620665E+03  0.47000000000E+01 0.  1.
       13    1    6    6    0    0  0.61593584996E+01 -0.98334872508E+01 -0.53454163395E+02  0.54699019671E+02  0.00000000000E+00 0. -1.
      -14    1    6    6    0    0  0.54814968514E+01 -0.73518158798E+02 -0.25126458676E+01  0.73765031485E+02  0.00000000000E+00 0.  1.
</event>
<event>
12   0  0.1544783E-01  0.1786539E+03  0.7957747E-01  0.1174685E+00
        2   -1    0    0  502    0  0.00000000000E+00  0.00000000000E+00  0.89917559985E+03  0.89917559985E+03  0.00000000000E+00 0.  1.
       -2   -1    0    0    0  501  0.00000000000E+00  0.00000000000E+00 -0.42573150884E+02  0.42573150884E+02  0.00000000000E+00 0. -1.
        6    2    1    2  502    0  0.38766843914E+02  0.25491039481E+02  0.23873164675E+03  0.29889776783E+03  0.17376540269E+03 0.  0.
       24    2    3    3    0    0  0.90785840944E+02  0.15612046001E+02  0.13417842352E+03  0.18160737158E+03  0.80570361666E+02 0.  0.
       -6    2    1    2    0  501 -0.38766843914E+02 -0.25491039481E+02  0.61787080222E+03  0.64285098291E+03  0.17129038709E+03 0.  0.
      -24    2    5    5    0    0 -0.19379879048E+01 -0.24838529816E+02  0.13932053238E+03  0.16286219016E+03  0.80580232559E+02 0.  0.
        5    1    3    3  502    0 -0.52018997030E+02  0.98789934803E+01  0.10455322323E+03  0.11729039625E+03  0.47000000000E+01 0. -1.
        2    1    4    4  503    0  0.56407665726E+02  0.56518838868E+01  0.17149208883E+02  0.59227222706E+02  0.00000000000E+00 0. -1.
       -1    1    4    4    0  503  0.34378175217E+02  0.99601621142E+01  0.11702921464E+03  0.12238014888E+03  0.00000000000E+00 0.  1.
       -5    1    5    5    0  501 -0.36828856009E+02 -0.65250966540E+00  0.47855026983E+03  0.47998879275E+03  0.47000000000E+01 0.  1.
       13    1    6    6    0    0 -0.32245091334E+02 -0.11320095986E+02  0.21309294414E+02  0.40273769586E+02  0.00000000000E+00 0. -1.
      -14    1    6    6    0    0  0.30307103429E+02 -0.13518433830E+02  0.11801123797E+03  0.12258842057E+03  0.00000000000E+00 0.  1.
</event>
<event>
12   0  0.1544783E-01  0.2243017E+03  0.7957747E-01  0.1137584E+00
       21   -1    0    0  501  503  0.00000000000E+00  0.00000000000E+00  0.25845068298E+03  0.25845068298E+03  0.00000000000E+00 0. -1.
       21   -1    0    0  503  504  0.00000000000E+00  0.00000000000E+00 -0.20723919440E+03  0.20723919440E+03  0.00000000000E+00 0. -1.
        6    2    1    2  501    0 -0.70674841864E+02  0.12173732261E+03  0.86611029166E+02  0.23861194632E+03  0.17210253213E+03 0.  0.
       24    2    3    3    0    0 -0.36459047641E+02  0.27778253681E+02 -0.17249541956E+02  0.94361693491E+02  0.80657851250E+02 0.  0.
       -6    2    1    2    0  504  0.70674841864E+02 -0.12173732261E+03 -0.35399540589E+02  0.22707793106E+03  0.17463204262E+03 0.  0.
      -24    2    5    5    0    0  0.10494523613E+03 -0.11127316561E+03  0.52739900924E+01  0.17266851457E+03  0.79946112979E+02 0.  0.
        5    1    3    3  501    0 -0.34215794223E+02  0.93959068929E+02  0.10386057112E+03  0.14425025283E+03  0.47000000000E+01 0. -1.
        4    1    4    4  502    0 -0.26389947319E+00  0.45014955441E+02 -0.27798521181E+02  0.52907217240E+02  0.00000000000E+00 0. -1.
       -3    1    4    4    0  502 -0.36195148168E+02 -0.17236701760E+02  0.10548979225E+02  0.41454476250E+02  0.00000000000E+00 0.  1.
       -5    1    5    5    0  504 -0.34270394264E+02 -0.10464156999E+02 -0.40673530681E+02  0.54409416490E+02  0.47000000000E+01 0.  1.
       13    1    6    6    0    0 -0.22807254330E+01 -0.19169287647E+02  0.23203016926E+02  0.30183493699E+02  0.00000000000E+00 0. -1.
      -14    1    6    6    0    0  0.10722596156E+03 -0.92103877963E+02 -0.17929026834E+02  0.14248502087E+03  0.00000000000E+00 0.  1.
</event>
<event>
12   0  0.1544783E-01  0.1959351E+03  0.7957747E-01  0.1159342E+00
       21   -1    0    0  501  503  0.00000000000E+00  0.00000000000E+00  0.91961528707E+03  0.91961528707E+03  0.00000000000E+00 0. -1.
       21   -1    0    0  503  504  0.00000000000E+00  0.00000000000E+00 -0.64156168530E+02  0.64156168530E+02  0.00000000000E+00 0. -1.
        6    2    1    2  501    0 -0.70435568364E+02 -0.59130813630E+02  0.72164835335E+03  0.74777464413E+03  0.17301141613E+03 0.  0.
       24    2    3    3    0    0 -0.11516321384E+03 -0.39057667323E+02  0.53911328781E+03  0.55871213166E+03  0.82024641263E+02 0.  0.
       -6    2    1    2    0  504  0.70435568364E+02  0.59130813630E+02  0.13381076519E+03  0.23599681147E+03  0.17126456647E+03 0.  0.
      -24    2    5    5    0    0  0.96860464880E+02  0.15074839135E+02  0.49342408517E+02  0.13702107038E+03  0.82042062488E+02 0.  0.
        5    1    3    3  501    0  0.44727645472E+02 -0.20073146307E+02  0.18253506554E+03  0.18906251247E+03  0.47000000000E+01 0. -1.
        2    1    4    4  502    0 -0.71437928431E+02 -0.23692770324E+02  0.46675086898E+03  0.47278018008E+03  0.00000000000E+00 0. -1.
       -1    1    4    4    0  502 -0.43725285405E+02 -0.15364897000E+02  0.72362418836E+02  0.85931951586E+02  0.00000000000E+00 0.  1.
       -5    1    5    5    0  504 -0.26424896516E+02  0.44055974495E+02  0.84468356676E+02  0.98975741089E+02  0.47000000000E+01 0.  1.
       11    1    6    6    0    0  0.60894470673E+02  0.47844820512E+02  0.41097186645E+02  0.87671216249E+02  0.00000000000E+00 0. -1.
      -12    1    6    6    0    0  0.35965994207E+02 -0.32769981377E+02  0.82452218726E+01  0.49349854128E+02  0.00000000000E+00 0.  1.
</event>
<event>
12   0  0.1544783E-01  0.1896945E+03  0.7957747E-01  0.1164675E+00
       21   -1    0    0  504  503  0.00000000000E+00  0.00000000000E+00  0.99503207370E+02  0.99503207370E+02  0.00000000000E+00 0. -1.
       21   -1    0    0  501  504  0.00000000000E+00  0.00000000000E+00 -0.72842136106E+03  0.72842136106E+03  0.00000000000E+00 0. -1.
        6    2    1    2  501    0 -0.59556805375E+02 -0.45980369326E+02 -0.60871149747E+03  0.63715688708E+03  0.17256304405E+03 0.  0.
       24    2    3    3    0    0 -0.53808235271E+02 -0.74163321294E+02 -0.25178535338E+03  0.27904281702E+03  0.77932696257E+02 0.  0.
       -6    2    1    2    0  503  0.59556805375E+02  0.45980369326E+02 -0.20206656224E+02  0.19076768135E+03  0.17413440747E+03 0.  0.
      -24    2    5    5    0    0  0.54664857041E+02  0.21227016804E+02 -0.79057859496E+02  0.12656321308E+03  0.79556702543E+02 0.  0.
        5    1    3    3  501    0 -0.57485701042E+01  0.28182951968E+02 -0.35692614409E+03  0.35811407006E+03  0.47000000000E+01 0. -1.
      -11    1    4    4    0    0  0.17173012487E+02 -0.21614619989E+02 -0.32506406599E+02  0.42647047086E+02  0.00000000000E+00 0.  1.
       12    1    4    4    0    0 -0.70981247758E+02 -0.52548701305E+02 -0.21927894678E+03  0.23639576993E+03  0.00000000000E+00 0. -1.
       -5    1    5    5    0  503  0.48919483342E+01  0.24753352522E+02  0.58851203272E+02  0.64204468273E+02  0.47000000000E+01 0.  1.
        3    1    6    6  502    0  0.27395122402E+02  0.42458842810E+02 -0.76796187023E+02  0.91928778984E+02  0.00000000000E+00 0. -1.
       -4    1    6    6    0  502  0.27269734639E+02 -0.21231826006E+02 -0.22616724734E+01  0.34634434097E+02  0.00000000000E+00 0.  1.
</event>
<event>
12   0  0.1544783E-01  0.1772866E+03  0.7957747E-01  0.1175981E+00
       21   -1    0    0  504  503  0.00000000000E+00  0.00000000000E+00  0.21896936468E+03  0.21896936468E+03  0.00000000000E+00 0.  1.
       21   -1    0    0  501  504  0.00000000000E+00  0.00000000000E+00 -0.20004108706E+03  0.20004108706E+03  0.00000000000E+00 0.  1.
        6    2    1    2  501    0  0.28154713095E+02 -0.97650313372E+01 -0.10536530105E+03  0.20249390295E+03  0.17033464228E+03 0.  0.
       24    2    3    3    0    0  0.46185453983E+02  0.11133050782E+02 -0.13350950837E+03  0.16279473598E+03  0.80126751199E+02 0.  0.
       -6    2    1    2    0  503 -0.28154713095E+02  0.97650313372E+01  0.12429357867E+03  0.21651654879E+03  0.17476406523E+03 0.  0.
      -24    2    5    5    0    0 -0.67411456565E+02  0.23727511131E+02  0.27669488736E+02  0.11118684023E+03  0.80558137846E+02 0.  0.
        5    1    3    3  501    0 -0.18030740888E+02 -0.20898082119E+02  0.28144207314E+02  0.39699166976E+02  0.47000000000E+01 0. -1.
      -13    1    4    4    0    0  0.27025556076E+00 -0.30560795367E+02 -0.35890236505E+02  0.47139625878E+02  0.00000000000E+00 0.  1.
       14    1    4    4    0    0  0.45915198422E+02  0.41693846149E+02 -0.97619271863E+02  0.11565511010E+03  0.00000000000E+00 0. -1.
       -5    1    5    5    0  503  0.39256743470E+02 -0.13962479794E+02  0.96624089932E+02  0.10532970856E+03  0.47000000000E+01 0.  1.
        1    1    6    6  502    0 -0.64280765169E+02 -0.12673736536E+02  0.27026138108E+00  0.65518801955E+02  0.00000000000E+00 0. -1.
       -2    1    6    6    0  502 -0.31306913965E+01  0.36401247668E+02  0.27399227355E+02  0.45668038277E+02  0.00000000000E+00 0.  1.
</event>
<event>
12   0  0.1544783E-01  0.1735439E+03  0.7957747E-01  0.1179592E+00
       21   -1    0    0  504  503  0.00000000000E+00  0.00000000000E+00  0.29760708224E+03  0.29760708224E+03  0.00000000000E+00 0. -1.
       21   -1    0    0  501  504  0.00000000000E+00  0.00000000000E+00 -0.10136644558E+03  0.10136644558E+03  0.00000000000E+00 0. -1.
        6    2    1    2  501    0 -0.10033586270E+01 -0.96997142728E+00  0.11667255357E+03  0.20911709074E+03  0.17353825315E+03 0.  0.
       24    2    3    3    0    0  0.89154891916E+01  0.42652270663E+02  0.13311154695E+03  0.16122539991E+03  0.79851383869E+02 0.  0.
       -6    2    1    2    0  503  0.10033586270E+01  0.96997142728E+00  0.79568083084E+02  0.18985643709E+03  0.17237296565E+03 0.  0.
      -24    2    5    5    0    0 -0.25718577507E+02  0.52299541008E+02  0.11687495239E+02  0.10053314343E+03  0.81077914157E+02 0.  0.
        5    1    3    3  501    0 -0.99188478186E+01 -0.43622242090E+02 -0.16438993374E+02  0.47891690826E+02  0.47000000000E+01 0. -1.
      -11    1    4    4    0    0  0.10771481184E+02  0.60575644602E+02  0.60045790650E+02  0.85970521114E+02  0.00000000000E+00 0.  1.
       12    1    4    4    0    0 -0.18559919927E+01 -0.17923373939E+02  0.73065756295E+02  0.75254878796E+02  0.00000000000E+00 0. -1.
       -5    1    5    5    0  503  0.26721936134E+02 -0.51329569581E+02  0.67880587845E+02  0.89323293660E+02  0.47000000000E+01 0.  1.
        3    1    6    6  502    0  0.12501969017E+02  0.56340119880E+02  0.20244795883E+02  0.61158483449E+02  0.00000000000E+00 0. -1.
       -4    1    6    6    0  502 -0.38220546524E+02 -0.40405788724E+01 -0.85573006438E+01  0.39374659980E+02  0.00000000000E+00 0.  1.
</event>
<event>
12   0  0.1544783E-01  0.1847087E+03  0.7957747E-01  0.1169100E+00
       21   -1    0    0  501  503  0.00000000000E+00  0.00000000000E+00  0.30808380453E+03  0.30808380453E+03  0.00000000000E+00 0. -1.
       21   -1    0    0  503  504  0.00000000000E+00  0.00000000000E+00 -0.16860853554E+03  0.16860853554E+03  0.00000000000E+00 0. -1.
        6    2    1    2  501    0  0.54419671511E+02 -0.19950919303E+02  0.21134630907E+03  0.28068590816E+03  0.17537895214E+03 0.  0.
       24    2    3    3    0    0 -0.20415795398E+02  0.31358326751E+02  0.72078204567E+02  0.11440096967E+03  0.80573971782E+02 0.  0.
       -6    2    1    2    0  504 -0.54419671511E+02  0.19950919303E+02 -0.71871040076E+02  0.19600643192E+03  0.17289746997E+03 0.  0.
      -24    2    5    5    0    0  0.19126497699E+02  0.20970518789E+02  0.14207001051E+02  0.82685658211E+02  0.76351120637E+02 0.  0.
        5    1    3    3  501    0  0.74835466909E+02 -0.51309246053E+02  0.13926810450E+03  0.16628493849E+03  0.47000000000E+01 0. -1.
        2    1    4    4  502    0  0.13109990678E+02  0.42568637161E+02  0.14510082170E+02  0.46845524972E+02  0.00000000000E+00 0. -1.
       -1    1    4    4    0  502 -0.33525786077E+02 -0.11210310410E+02  0.57568122397E+02  0.67555444695E+02  0.00000000000E+00 0.  1.
       -5    1    5    5    0  504 -0.73546169209E+02 -0.10195994863E+01 -0.86078041128E+02  0.11332077370E+03  0.47000000000E+01 0.  1.
       13    1    6    6    0    0  0.27934273489E+02  0.44883001177E+01 -0.25951349191E+02  0.38391939234E+02  0.00000000000E+00 0. -1.
      -14    1    6    6    0    0 -0.88077757903E+01  0.16482218671E+02  0.40158350242E+02  0.44293718978E+02  0.00000000000E+00 0.  1.
</event>
<event>
12   0  0.1544783E-01  0.2507405E+03  0.7957747E-01  0.1120257E+00
       21   -1    0    0  501  503  0.00000000000E+00  0.00000000000E+00  0.12914895818E+04  0.12914895818E+04  0.00000000000E+00 0. -1.
       21   -1    0    0  503  504  0.00000000000E+00  0.00000000000E+00 -0.85010185458E+02  0.85010185458E+02  0.00000000000E+00 0.  1.
        6    2    1    2  501    0 -0.97199935200E+02  0.15246682198E+03  0.10538651211E+04  0.10829663002E+04  0.17172755901E+03 0.  0.
       24    2    3    3    0    0 -0.77040065273E+02  0.12612345911E+03  0.49031112528E+03  0.51841728601E+03  0.80679515808E+02 0.  0.
       -6    2    1    2    0  504  0.97199935200E+02 -0.15246682198E+03  0.15261427517E+03  0.29353346706E+03  0.17371476648E+03 0.  0.
      -24    2    5    5    0    0  0.41878247438E+01 -0.68598866956E+02  0.12454445345E+03  0.16510024915E+03  0.83805900513E+02 0.  0.
        5    1    3    3  501    0 -0.20159869927E+02  0.26343362864E+02  0.56355399587E+03  0.56454901415E+03  0.47000000000E+01 0. -1.
        2    1    4    4  502    0 -0.68840815212E+02  0.39158097535E+02  0.19535374116E+03  0.21079729274E+03  0.00000000000E+00 0. -1.
       -1    1    4    4    0  502 -0.81992500612E+01  0.86965361577E+02  0.29495738412E+03  0.30761999327E+03  0.00000000000E+00 0.  1.
       -5    1    5    5    0  504  0.93012110456E+02 -0.83867955020E+02  0.28069821712E+02  0.12843321791E+03  0.47000000000E+01 0.  1.
       13    1    6    6    0    0  0.13810943974E+02  0.17372668017E+00  0.83079887610E+02  0.84220188077E+02  0.00000000000E+00 0. -1.
      -14    1    6    6    0    0 -0.96231192301E+01 -0.68772593636E+02  0.41464565843E+02  0.80880061077E+02  0.00000000000E+00 0.  1.
</event>
<event>
12   0  0.1544783E-01  0.1818724E+03  0.7957747E-01  0.1171687E+00
       21   -1    0    0  504  503  0.00000000000E+00  0.00000000000E+00  0.34768845676E+03  0.34768845676E+03  0.00000000000E+00 0.  1.
       21   -1    0    0  501  504  0.00000000000E+00  0.00000000000E+00 -0.30746517844E+03  0.30746517844E+03  0.00000000000E+00 0.  1.
        6    2    1    2  501    0  0.57824460267E+02 -0.63189121836E+01 -0.25214426544E+03  0.31083349856E+03  0.17221247450E+03 0.  0.
       24    2    3    3    0    0  0.61128959475E+02  0.58478227807E+02 -0.16436986445E+03  0.20158138399E+03  0.80381274069E+02 0.  0.
       -6    2    1    2    0  503 -0.57824460267E+02  0.63189121836E+01  0.29236754376E+03  0.34432013664E+03  0.17231940981E+03 0.  0.
      -24    2    5    5    0    0 -0.24896263896E+02 -0.50441776490E+02  0.88788324675E+02  0.13037474563E+03  0.77136313931E+02 0.  0.
        5    1    3    3  501    0 -0.33044992088E+01 -0.64797139991E+02 -0.87774400995E+02  0.10925211456E+03  0.47000000000E+01 0. -1.
        4    1    4    4  502    0  0.50047901424E+02  0.36062448087E+02 -0.37327453277E+02  0.72101535123E+02  0.00000000000E+00 0. -1.
       -3    1    4    4    0  502  0.11081058051E+02  0.22415779721E+02 -0.12704241117E+03  0.12947984887E+03  0.00000000000E+00 0.  1.
       -5    1    5    5    0  503 -0.32928196371E+02  0.56760688673E+02  0.20357921909E+03  0.21394539102E+03  0.47000000000E+01 0.  1.
       11    1    6    6    0    0  0.14677800234E+02  0.96638097648E+01  0.39261934996E+02  0.43015422566E+02  0.00000000000E+00 0. -1.
      -12    1    6    6    0    0 -0.39574064130E+02 -0.60105586254E+02  0.49526389679E+02  0.87359323060E+02  0.00000000000E+00 0.  1.
</event>
<event>
12   0  0.1544783E-01  0.2087846E+03  0.7957747E-01  0.1149018E+00
       21   -1    0    0  501  503  0.00000000000E+00  0.00000000000E+00  0.40682244428E+03  0.40682244428E+03  0.00000000000E+00 0.  1.
       21   -1    0    0  503  504  0.00000000000E+00  0.00000000000E+00 -0.14827367927E+03  0.14827367927E+03  0.00000000000E+00 0. -1.
        6    2    1    2  501    0  0.11668281168E+03 -0.14733918668E+02  0.27566830009E+03  0.34561081318E+03  0.17211001020E+03 0.  0.
       24    2    3    3    0    0  0.13008479926E+03  0.27034372692E+02  0.25173963204E+03  0.29542242220E+03  0.79048421175E+02 0.  0.
       -6    2    1    2    0  504 -0.11668281168E+03  0.14733918668E+02 -0.17119535078E+02  0.20948531037E+03  0.17250811540E+03 0.  0.
      -24    2    5    5    0    0 -0.25938536327E+02  0.65201870295E+02 -0.16202017275E+02  0.10554076030E+03  0.77150859775E+02 0.  0.
        5    1    3    3  501    0 -0.13401987588E+02 -0.41768291359E+02  0.23928668047E+02  0.50188390977E+02  0.47000000000E+01 0. -1.
        4    1    4    4  502    0  0.93080413415E+02  0.50096608947E+02  0.13960705093E+03  0.17511071429E+03  0.00000000000E+00 0. -1.
       -3    1    4    4    0  502  0.37004385848E+02 -0.23062236255E+02  0.11213258111E+03  0.12031170791E+03  0.00000000000E+00 0.  1.
       -5    1    5    5    0  504 -0.90744275349E+02 -0.50467951627E+02 -0.91751780284E+00  0.10394455007E+03  0.47000000000E+01 0.  1.
       13    1    6    6    0    0 -0.11373985195E+01 -0.11545211715E+02 -0.21797048029E+02  0.24692041060E+02  0.00000000000E+00 0. -1.
      -14    1    6    6    0    0 -0.24801137807E+02  0.76747082010E+02  0.55950307531E+01  0.80848719240E+02  0.00000000000E+00 0.  1.
</event>
<event>
12   0  0.1544783E-01  0.2171587E+03  0.7957747E-01  0.1142717E+00
        2   -1    0    0  502    0  0.00000000000E+00  0.00000000000E+00  0.17682600978E+04  0.17682600978E+04  0.00000000000E+00 0. -1.
       -2   -1    0    0    0  501  0.00000000000E+00  0.00000000000E+00 -0.27398375546E+02  0.27398375546E+02  0.00000000000E+00 0.  1.
        6    2    1    2  502    0 -0.11644112045E+03 -0.61487151090E+02  0.10180128621E+04  0.10409762714E+04  0.17303816321E+03 0.  0.
       24    2    3    3    0    0 -0.15002451778E+03 -0.39719522408E+02  0.85881674317E+03  0.87675943755E+03  0.83999503540E+02 0.  0.
       -6    2    1    2    0  501  0.11644112045E+03  0.61487151090E+02  0.72284886012E+03  0.75468220192E+03  0.17232395954E+03 0.  0.
      -24    2    5    5    0    0 -0.26263757379E+01 -0.35447273872E+01  0.23814474230E+03  0.25132707311E+03  0.80205463963E+02 0.  0.
        5    1    3    3  502    0  0.33583397332E+02 -0.21767628682E+02  0.15919611891E+03  0.16421683382E+03  0.47000000000E+01 0. -1.
        4    1    4    4  503    0 -0.84454879616E+02 -0.57200414467E+02  0.62595277097E+03  0.63420926010E+03  0.00000000000E+00 0. -1.
       -3    1    4    4    0  503 -0.65569638163E+02  0.17480892059E+02  0.23286397219E+03  0.24255017745E+03  0.00000000000E+00 0.  1.
       -5    1    5    5    0  501  0.11906749619E+03  0.65031878477E+02  0.48470411782E+03  0.50335512881E+03  0.47000000000E+01 0.  1.
       13    1    6    6    0    0 -0.17544516263E+02  0.31314042321E+02  0.16587951906E+03  0.16971857335E+03  0.00000000000E+00 0. -1.
      -14    1    6    6    0    0  0.14918140525E+02 -0.34858769708E+02  0.72265223249E+02  0.81608499762E+02  0.00000000000E+00 0.  1.
</event>
<event>
12   0  0.1544783E-01  0.1740199E+03  0.7957747E-01  0.1179127E+00
       -1   -1    0    0    0  501  0.00000000000E+00  0.00000000000E+00  0.99547673630E+02  0.99547673630E+02  0.00000000000E+00 0. -1.
        1   -1    0    0  502    0  0.00000000000E+00  0.00000000000E+00 -0.68501961057E+03  0.68501961057E+03  0.00000000000E+00 0.  1.
        6    2    1    2  502    0  0.18055922438E+02 -0.10080820862E+02 -0.58453624312E+03  0.60963101450E+03  0.17187121643E+03 0.  0.
       24    2    3    3    0    0  0.48095222431E+02  0.28561236377E+02 -0.20719496425E+03  0.22909967694E+03  0.80174897050E+02 0.  0.
       -6    2    1    2    0  501 -0.18055922438E+02  0.10080820862E+02 -0.93569381817E+00  0.17493626970E+03  0.17370717788E+03 0.  0.
      -24    2    5    5    0    0  0.31588398267E+02  0.39727780276E+02  0.41435643566E+02  0.10309671922E+03  0.79598351275E+02 0.  0.
        5    1    3    3  502    0 -0.30039299993E+02 -0.38642057240E+02 -0.37734127887E+03  0.38053133757E+03  0.47000000000E+01 0. -1.
      -11    1    4    4    0    0  0.54415418198E+02  0.48372420523E+02 -0.18435532325E+03  0.19821153855E+03  0.00000000000E+00 0.  1.
       12    1    4    4    0    0 -0.63201957666E+01 -0.19811184145E+02 -0.22839641005E+02  0.30888138387E+02  0.00000000000E+00 0. -1.
       -5    1    5    5    0  501 -0.49644320705E+02 -0.29646959414E+02 -0.42371337384E+02  0.71839550475E+02  0.47000000000E+01 0.  1.
        1    1    6    6  503    0  0.28080826829E+02 -0.44850482289E+01 -0.14330921197E+02  0.31843740285E+02  0.00000000000E+00 0. -1.
       -2    1    6    6    0  503  0.35075714378E+01  0.44212828505E+02  0.55766564763E+02  0.71252978936E+02  0.00000000000E+00 0.  1.
</event>
<event>
12   0  0.1544783E-01  0.1889586E+03  0.7957747E-01  0.1165319E+00
       21   -1    0    0  501  503  0.00000000000E+00  0.00000000000E+00  0.48755742888E+03  0.48755742888E+03  0.00000000000E+00 0.  1.
       21   -1    0    0  503  504  0.00000000000E+00  0.00000000000E+00 -0.14330354707E+03  0.14330354707E+03  0.00000000000E+00 0.  1.
        6    2    1    2  501    0  0.68551090965E+02  0.12798180852E+02  0.39366413654E+03  0.43554912519E+03  0.17282517915E+03 0.  0.
       24    2    3    3    0    0  0.20232601325E+02 -0.91056091544E+00  0.37127868819E+03  0.38036031890E+03  0.80099441995E+02 0.  0.
       -6    2    1    2    0  504 -0.68551090965E+02 -0.12798180852E+02 -0.49410254723E+02  0.19531185076E+03  0.17561976048E+03 0.  0.
      -24    2    5    5    0    0 -0.50552698343E+02  0.58785742764E+02 -0.13340698433E+02  0.11302392243E+03  0.81148591766E+02 0.  0.
        5    1    3    3  501    0  0.48318489641E+02  0.13708741767E+02  0.22385448343E+02  0.55188806288E+02  0.47000000000E+01 0. -1.
        2    1    4    4  502    0  0.70529640734E+01 -0.33526937968E+02  0.80859949234E+02  0.87818740948E+02  0.00000000000E+00 0. -1.
       -1    1    4    4    0  502  0.13179637251E+02  0.32616377052E+02  0.29041873896E+03  0.29254157795E+03  0.00000000000E+00 0.  1.
       -5    1    5    5    0  504 -0.17998392622E+02 -0.71583923616E+02 -0.36069556290E+02  0.82287928326E+02  0.47000000000E+01 0.  1.
       13    1    6    6    0    0  0.13267881895E+02  0.44191280673E+02 -0.11398057167E+02  0.47527062656E+02  0.00000000000E+00 0. -1.
      -14    1    6    6    0    0 -0.63820580239E+02  0.14594462091E+02 -0.19426412659E+01  0.65496859778E+02  0.00000000000E+00 0.  1.
</event>
<event>
12   0  0.1544783E-01  0.2227367E+03  0.7957747E-01  0.1138691E+00
       21   -1    0    0  504  503  0.00000000000E+00  0.00000000000E+00  0.47081047746E+03  0.47081047746E+03  0.00000000000E+00 0.  1.
       21   -1    0    0  501  504  0.00000000000E+00  0.00000000000E+00 -0.16928412205E+03  0.16928412205E+03  0.00000000000E+00 0.  1.
        6    2    1    2  501    0  0.12693222561E+03 -0.56858669388E+02 -0.53544123141E+02  0.22908211973E+03  0.17397398160E+03 0.  0.
       24    2    3    3    0    0  0.10320096218E+03  0.25962683544E+02 -0.14051585065E+02  0.13419113001E+03  0.80531439817E+02 0.  0.
       -6    2    1    2    0  503 -0.12693222561E+03  0.56858669388E+02  0.35507047855E+03  0.41101247978E+03  0.15333465235E+03 0.  0.
      -24    2    5    5    0    0 -0.86619560634E+02 -0.97467074242E+01  0.27499117739E+03  0.29922620311E+03  0.79487271892E+02 0.  0.
        5    1    3    3  501    0  0.23731263431E+02 -0.82821352932E+02 -0.39492538076E+02  0.94890989716E+02  0.47000000000E+01 0. -1.
      -11    1    4    4    0    0  0.79155054871E+02  0.34913855368E+02 -0.42069854429E+02  0.96199649999E+02  0.00000000000E+00 0.  1.
       12    1    4    4    0    0  0.24045907309E+02 -0.89511718239E+01  0.28018269364E+02  0.37991480012E+02  0.00000000000E+00 0. -1.
       -5    1    5    5    0  503 -0.40312664975E+02  0.66605376812E+02  0.80079301164E+02  0.11178627667E+03  0.47000000000E+01 0.  1.
        1    1    6    6  502    0 -0.12576667793E+02 -0.36882104183E+02  0.97932651004E+02  0.10540050434E+03  0.00000000000E+00 0. -1.
       -2    1    6    6    0  502 -0.74042892841E+02  0.27135396759E+02  0.17705852638E+03  0.19382569877E+03  0.00000000000E+00 0.  1.
</event>
<event>
12   0  0.1544783E-01  0.1968274E+03  0.7957747E-01  0.1158598E+00
       21   -1    0    0  501  503  0.00000000000E+00  0.00000000000E+00  0.33822187131E+03  0.33822187131E+03  0.00000000000E+00 0.  1.
       21   -1    0    0  503  504  0.00000000000E+00  0.00000000000E+00 -0.17770030541E+03  0.17770030541E+03  0.00000000000E+00 0.  1.
        6    2    1    2  501    0  0.88567319993E+02 -0.23175915801E+02  0.23537216750E+03  0.30534286219E+03  0.17161851012E+03 0.  0.
       24    2    3    3    0    0  0.34707739104E+02 -0.24908268659E+02  0.26238023094E+02  0.89326576105E+02  0.73930740166E+02 0.  0.
       -6    2    1    2    0  504 -0.88567319993E+02  0.23175915801E+02 -0.74850601595E+02  0.21057931453E+03  0.17424047149E+03 0.  0.
      -24    2    5    5    0    0 -0.33438468809E+02 -0.20632749423E+01  0.35318674675E+02  0.84739867548E+02  0.69361719063E+02 0.  0.
        5    1    3    3  501    0  0.53859580889E+02  0.17323528574E+01  0.20913414440E+03  0.21601628609E+03  0.47000000000E+01 0. -1.
      -13    1    4    4    0    0  0.42586419168E+02  0.52243974298E+01  0.36710606318E+02  0.56467389193E+02  0.00000000000E+00 0.  1.
       14    1    4    4    0    0 -0.78786800641E+01 -0.30132666089E+02 -0.10472583224E+02  0.32859186912E+02  0.00000000000E+00 0. -1.
       -5    1    5    5    0  504 -0.55128851183E+02  0.25239190744E+02 -0.11016927627E+03  0.12583944698E+03  0.47000000000E+01 0.  1.
        1    1    6    6  502    0  0.16461330584E+02 -0.14357850467E+02  0.23346725182E+02  0.31971750833E+02  0.00000000000E+00 0. -1.
       -2    1    6    6    0  502 -0.49899799394E+02  0.12294575525E+02  0.11971949493E+02  0.52768116714E+02  0.00000000000E+00 0.  1.
</event>
<event>
12   0  0.1544783E-01  0.3995216E+03  0.7957747E-01  0.1053192E+00
       21   -1    0    0  501  503  0.00000000000E+00  0.00000000000E+00  0.30085687176E+03  0.30085687176E+03  0.00000000000E+00 0. -1.
       21   -1    0    0  503  504  0.00000000000E+00  0.00000000000E+00 -0.54032184704E+03  0.54032184704E+03  0.00000000000E+00 0.  1.
        6    2    1    2  501    0  0.21655006629E+03 -0.28759074357E+03 -0.17633685510E+03  0.43670603718E+03  0.17324869249E+03 0.  0.
       24    2    3    3    0    0  0.14870774737E+03 -0.28337231418E+03 -0.15567926466E+03  0.36550771259E+03  0.83342617805E+02 0.  0.
       -6    2    1    2    0  504 -0.21655006629E+03  0.28759074357E+03 -0.63128120184E+02  0.40447268162E+03  0.17323574581E+03 0.  0.
      -24    2    5    5    0    0 -0.21911746591E+03  0.20646973712E+03 -0.79912230957E+02  0.32146060056E+03  0.79427557174E+02 0.  0.
        5    1    3    3  501    0  0.67842318913E+02 -0.42184293866E+01 -0.20657590436E+02  0.71198324591E+02  0.47000000000E+01 0. -1.
      -11    1    4    4    0    0  0.13462533908E+03 -0.23982281317E+03 -0.16217395028E+03  0.31927942901E+03  0.00000000000E+00 0.  1.
       12    1    4    4    0    0  0.14082408292E+02 -0.43549501007E+02  0.64946856139E+01  0.46228283577E+02  0.00000000000E+00 0. -1.
       -5    1    5    5    0  504  0.25673996291E+01  0.81121006448E+02  0.16784110773E+02  0.83012081063E+02  0.47000000000E+01 0.  1.
        1    1    6    6  502    0 -0.11505946294E+03  0.15216824920E+03 -0.26859324664E+02  0.19265326210E+03  0.00000000000E+00 0. -1.
       -2    1    6    6    0  502 -0.10405800298E+03  0.54301487916E+02 -0.53052906293E+02  0.12880733846E+03  0.00000000000E+00 0.  1.
</event>
<event>
12   0  0.1544783E-01  0.1788324E+03  0.7957747E-01  0.1174517E+00
       21   -1    0    0  501  503  0.00000000000E+00  0.00000000000E+00  0.16376320167E+03  0.16376320167E+03  0.00000000000E+00 0. -1.
       21   -1    0    0  503  504  0.00000000000E+00  0.00000000000E+00 -0.28737286876E+03  0.28737286876E+03  0.00000000000E+00 0. -1.
        6    2    1    2  501    0 -0.26590482801E+02  0.28747716185E+02  0.66790719223E+02  0.19089798175E+03  0.17449227577E+03 0.  0.
       24    2    3    3    0    0  0.38189192664E+02  0.81992468353E+01 -0.21186451868E+02  0.79629304315E+02  0.66078122536E+02 0.  0.
       -6    2    1    2    0  504  0.26590482801E+02 -0.28747716185E+02 -0.19040038631E+03  0.26023808867E+03  0.17302621398E+03 0.  0.
      -24    2    5    5    0    0 -0.39558265332E+01  0.19250898114E+02 -0.18542168453E+03  0.20293345133E+03  0.80090816792E+02 0.  0.
        5    1    3    3  501    0 -0.64779675466E+02  0.20548469350E+02  0.87977171091E+02  0.11126867744E+03  0.47000000000E+01 0. -1.
        2    1    4    4  502    0  0.46058925350E+02 -0.11100530445E+02  0.32770520827E+01  0.47490898611E+02  0.00000000000E+00 0. -1.
       -1    1    4    4    0  502 -0.78697326854E+01  0.19299777280E+02 -0.24463503951E+02  0.32138405704E+02  0.00000000000E+00 0.  1.
       -5    1    5    5    0  504  0.30546309335E+02 -0.47998614299E+02 -0.49787017833E+01  0.57304637335E+02  0.47000000000E+01 0.  1.
       11    1    6    6    0    0 -0.32731969852E+02  0.29744751823E+02 -0.64600722029E+02  0.78290391480E+02  0.00000000000E+00 0. -1.
      -12    1    6    6    0    0  0.28776143319E+02 -0.10493853709E+02 -0.12082096250E+03  0.12464305985E+03  0.00000000000E+00 0.  1.
</event>
<event>
12   0  0.1544783E-01  0.1863152E+03  0.7957747E-01  0.1167658E+00
       21   -1    0    0  504  503  0.00000000000E+00  0.00000000000E+00  0.61193571468E+02  0.61193571468E+02  0.00000000000E+00 0.  1.
       21   -1    0    0  501  504  0.00000000000E+00  0.00000000000E+00 -0.56790996567E+03  0.56790996567E+03  0.00000000000E+00 0.  1.
        6    2    1    2  501    0 -0.58865039188E+02 -0.17366785509E+02 -0.28878155012E+03  0.34238253181E+03  0.17339064659E+03 0.  0.
       24    2    3    3    0    0  0.33712011769E+02  0.31005946570E+01 -0.15582424888E+03  0.17901436488E+03  0.81356209779E+02 0.  0.
       -6    2    1    2    0  503  0.58865039188E+02  0.17366785509E+02 -0.21793484409E+03  0.28672100533E+03  0.17591657270E+03 0.  0.
      -24    2    5    5    0    0  0.16775112476E+02 -0.54912725300E+02 -0.12082691550E+03  0.15847152421E+03  0.84954509452E+02 0.  0.
        5    1    3    3  501    0 -0.92577050957E+02 -0.20467380167E+02 -0.13295730123E+03  0.16336816693E+03  0.47000000000E+01 0. -1.
      -13    1    4    4    0    0 -0.15293368627E+02 -0.26543297060E+02 -0.48509836313E+02  0.57372798101E+02  0.00000000000E+00 0.  1.
       14    1    4    4    0    0  0.49005380396E+02  0.29643891717E+02 -0.10731441257E+03  0.12164156678E+03  0.00000000000E+00 0. -1.
       -5    1    5    5    0  503  0.42089926713E+02  0.72279510810E+02 -0.97107928590E+02  0.12824948112E+03  0.47000000000E+01 0.  1.
        1    1    6    6  502    0 -0.80158772054E+01 -0.30451031967E+02 -0.11954256921E+03  0.12362016619E+03  0.00000000000E+00 0. -1.
       -2    1    6    6    0  502  0.24790989681E+02 -0.24461693333E+02 -0.12843462883E+01  0.34851358015E+02  0.00000000000E+00 0.  1.
</event>
<event>
12   0  0.1544783E-01  0.1930310E+03  0.7957747E-01  0.1161796E+00
       21   -1    0    0  504  503  0.00000000000E+00  0.00000000000E+00  0.18465062175E+03  0.18465062175E+03  0.00000000000E+00 0. -1.
       21   -1    0    0  501  504  0.00000000000E+00  0.00000000000E+00 -0.22042348595E+03  0.22042348595E+03  0.00000000000E+00 0. -1.
        6    2    1    2  501    0  0.69084656444E+02 -0.32913301856E+02  0.47166126128E+02  0.19497927829E+03  0.17302109788E+03 0.  0.
       24    2    3    3    0    0 -0.24181349793E+02 -0.43035627452E+02  0.11367199783E+02  0.94457327838E+02  0.79725595911E+02 0.  0.
       -6    2    1    2    0  503 -0.69084656444E+02  0.32913301856E+02 -0.82938990324E+02  0.21009482941E+03  0.17721451981E+03 0.  0.
      -24    2    5    5    0    0  0.18480763993E+02  0.57247923571E+02 -0.64039435334E+02  0.11714774850E+03  0.77483432486E+02 0.  0.
        5    1    3    3  501    0  0.93266006237E+02  0.10122325596E+02  0.35798926345E+02  0.10052195045E+03  0.47000000000E+01 0. -1.
        2    1    4    4  502    0  0.11309643468E+02 -0.38145193180E+02  0.33784611649E+02  0.52195438330E+02  0.00000000000E+00 0. -1.
       -1    1    4    4    0  502 -0.35490993261E+02 -0.48904342719E+01 -0.22417411866E+02  0.42261889508E+02  0.00000000000E+00 0.  1.
       -5    1    5    5    0  503 -0.87565420437E+02 -0.24334621715E+02 -0.18899554991E+02  0.92947080907E+02  0.47000000000E+01 0.  1.
       13    1    6    6    0    0 -0.16190256553E+02  0.46228111123E+02 -0.69783284944E+01  0.49475850006E+02  0.00000000000E+00 0. -1.
      -14    1    6    6    0    0  0.34671020546E+02  0.11019812448E+02 -0.57061106839E+02  0.67671898494E+02  0.00000000000E+00 0.  1.
</event>
<event>
12   0  0.1544783E-01  0.1792084E+03  0.7957747E-01  0.1174164E+00
       21   -1    0    0  501  503  0.00000000000E+00  0.00000000000E+00  0.41653237357E+03  0.41653237357E+03  0.00000000000E+00 0. -1.
       21   -1    0    0  503  504  0.00000000000E+00  0.00000000000E+00 -0.89968594608E+02  0.89968594608E+02  0.00000000000E+00 0. -1.
        6    2    1    2  501    0  0.47685370773E+02  0.21555966949E+01  0.26344935455E+03  0.31650335555E+03  0.16879061135E+03 0.  0.
       24    2    3    3    0    0 -0.20592402825E+02 -0.42068585716E+02  0.15695557509E+03  0.18241141791E+03  0.80281130238E+02 0.  0.
       -6    2    1    2    0  504 -0.47685370773E+02 -0.21555966949E+01  0.63114424414E+02  0.18999761263E+03  0.17273424980E+03 0.  0.
      -24    2    5    5    0    0 -0.45146178799E+02 -0.54597267176E+02 -0.11308919826E+01  0.10689450211E+03  0.80038219760E+02 0.  0.
        5    1    3    3  501    0  0.68277773598E+02  0.44224182411E+02  0.10649377946E+03  0.13409193764E+03  0.47000000000E+01 0. -1.
        2    1    4    4  502    0 -0.44704473551E+02 -0.16794812526E+01  0.90982207742E+02  0.10138576201E+03  0.00000000000E+00 0. -1.
       -1    1    4    4    0  502  0.24112070726E+02 -0.40389104464E+02  0.65973367351E+02  0.81025655898E+02  0.00000000000E+00 0.  1.
       -5    1    5    5    0  504 -0.25391919744E+01  0.52441670481E+02  0.64245316396E+02  0.83103110517E+02  0.47000000000E+01 0.  1.
       13    1    6    6    0    0  0.96840907155E+01 -0.24269072725E+02 -0.28370925949E+02  0.38570441314E+02  0.00000000000E+00 0. -1.
      -14    1    6    6    0    0 -0.54830269514E+02 -0.30328194450E+02  0.27240033967E+02  0.68324060800E+02  0.00000000000E+00 0.  1.
</event>
<event>
12   0  0.1544783E-01  0.2623308E+03  0.7957747E-01  0.1113380E+00
       21   -1    0    0  501  503  0.00000000000E+00  0.00000000000E+00  0.22701882393E+03  0.22701882393E+03  0.00000000000E+00 0. -1.
       21   -1    0    0  503  504  0.00000000000E+00  0.00000000000E+00 -0.35810794058E+03  0.35810794058E+03  0.00000000000E+00 0.  1.
        6    2    1    2  501    0  0.12622672831E+03 -0.15088089179E+03  0.51402933511E+02  0.26731951846E+03  0.17354893525E+03 0.  0.
       24    2    3    3    0    0  0.12014206022E+03 -0.61217842380E+02 -0.12163759649E+02  0.15714102647E+03  0.79772215044E+02 0.  0.
       -6    2    1    2    0  504 -0.12622672831E+03  0.15088089179E+03 -0.18249205016E+03  0.31780724605E+03  0.17029347264E+03 0.  0.
      -24    2    5    5    0    0 -0.30064701534E+01  0.29700181055E+02 -0.50461761614E+02  0.10027084963E+03  0.81343188299E+02 0.  0.
        5    1    3    3  501    0  0.60846680923E+01 -0.89663049414E+02  0.63566693160E+02  0.11017849198E+03  0.47000000000E+01 0. -1.
      -11    1    4    4    0    0  0.36158280808E+02 -0.16549382204E+01  0.28874883454E+02  0.46302472785E+02  0.00000000000E+00 0.  1.
       12    1    4    4    0    0  0.83983779411E+02 -0.59562904159E+02 -0.41038643103E+02  0.11083855369E+03  0.00000000000E+00 0. -1.
       -5    1    5    5    0  504 -0.12322025816E+03  0.12118071074E+03 -0.13203028855E+03  0.21753639643E+03  0.47000000000E+01 0.  1.
        3    1    6    6  502    0  0.18934135125E+02  0.49230057212E+02 -0.47084155646E+02  0.70703732001E+02  0.00000000000E+00 0. -1.
       -4    1    6    6    0  502 -0.21940605279E+02 -0.19529876157E+02 -0.33776059676E+01  0.29567117627E+02  0.00000000000E+00 0.  1.
</event>
<event>
12   0  0.1544783E-01  0.2061682E+03  0.7957747E-01  0.1151053E+00
       21   -1    0    0  501  503  0.00000000000E+00  0.00000000000E+00  0.67311379407E+02  0.67311379407E+02  0.00000000000E+00 0. -1.
       21   -1    0    0  503  504  0.00000000000E+00  0.00000000000E+00 -0.69810767340E+03  0.69810767340E+03  0.00000000000E+00 0.  1.
        6    2    1    2  501    0 -0.10961075455E+03 -0.14364938642E+02 -0.19570819029E+03  0.28395568198E+03  0.17351733229E+03 0.  0.
       24    2    3    3    0    0 -0.12686802678E+03 -0.44810405488E+02 -0.19836860085E+03  0.24854512309E+03  0.65735133306E+02 0.  0.
       -6    2    1    2    0  504  0.10961075455E+03  0.14364938642E+02 -0.43508810370E+03  0.48146337083E+03  0.17402428131E+03 0.  0.
      -24    2    5    5    0    0 -0.74814087751E+01  0.22332685189E+02 -0.17229575912E+03  0.19361624808E+03  0.85127566667E+02 0.  0.
        5    1    3    3  501    0  0.17257272229E+02  0.30445466846E+02  0.26604105615E+01  0.35410558886E+02  0.47000000000E+01 0. -1.
        4    1    4    4  502    0 -0.10271774807E+03 -0.11351020661E+02 -0.10951215916E+03  0.15057454779E+03  0.00000000000E+00 0. -1.
       -3    1    4    4    0  502 -0.24150278709E+02 -0.33459384827E+02 -0.88856441692E+02  0.97970575301E+02  0.00000000000E+00 0.  1.
       -5    1    5    5    0  504  0.11709216333E+03 -0.79677465469E+01 -0.26279234459E+03  0.28784712275E+03  0.47000000000E+01 0.  1.
       11    1    6    6    0    0 -0.28063478575E+00 -0.30903530485E+02 -0.91610929859E+02  0.96683346146E+02  0.00000000000E+00 0. -1.
      -12    1    6    6    0    0 -0.72007739894E+01  0.53236215674E+02 -0.80684829257E+02  0.96932901935E+02  0.00000000000E+00 0.  1.
</event>
<event>
12   0  0.1544783E-01  0.1860990E+03  0.7957747E-01  0.1167851E+00
        1   -1    0    0  502    0  0.00000000000E+00  0.00000000000E+00  0.60241425867E+03  0.60241425867E+03  0.00000000000E+00 0. -1.
       -1   -1    0    0    0  501  0.00000000000E+00  0.00000000000E+00 -0.60005289904E+02  0.60005289904E+02  0.00000000000E+00 0.  1.
        6    2    1    2  502    0 -0.24491524684E+02  0.64859113701E+02  0.33863567367E+03  0.38627252829E+03  0.17241173748E+03 0.  0.
       24    2    3    3    0    0 -0.55043819323E+02  0.55417061592E+02  0.11722640742E+03  0.16251652672E+03  0.81047628596E+02 0.  0.
       -6    2    1    2    0  501  0.24491524684E+02 -0.64859113701E+02  0.20377329509E+03  0.27614702028E+03  0.17299445541E+03 0.  0.
      -24    2    5    5    0    0 -0.29788063911E+02 -0.79174007529E+02  0.97188643790E+02  0.15559177229E+03  0.87219922630E+02 0.  0.
        5    1    3    3  502    0  0.30552294639E+02  0.94420521081E+01  0.22140926626E+03  0.22375600157E+03  0.47000000000E+01 0. -1.
      -13    1    4    4    0    0 -0.52545986159E+02  0.13336502377E+02  0.22240696123E+02  0.58596855898E+02  0.00000000000E+00 0.  1.
       14    1    4    4    0    0 -0.24978331635E+01  0.42080559216E+02  0.94985711292E+02  0.10391967082E+03  0.00000000000E+00 0. -1.
       -5    1    5    5    0  501  0.54279588595E+02  0.14314893828E+02  0.10658465130E+03  0.12055524799E+03  0.47000000000E+01 0.  1.
        1    1    6    6  503    0 -0.14023743878E+02 -0.96482140201E+02  0.71975585879E+02  0.12118561686E+03  0.00000000000E+00 0. -1.
       -2    1    6    6    0  503 -0.15764320033E+02  0.17308132672E+02  0.25213057911E+02  0.34406155436E+02  0.00000000000E+00 0.  1.
</event>
<event>
12   0  0.1544783E-01  0.2575913E+03  0.7957747E-01  0.1116145E+00
       -2   -1    0    0    0  501  0.00000000000E+00  0.00000000000E+00  0.31792146132E+03  0.31792146132E+03  0.00000000000E+00 0. -1.
        2   -1    0    0  502    0  0.00000000000E+00  0.00000000000E+00 -0.25074900667E+03  0.25074900667E+03  0.00000000000E+00 0.  1.
        6    2    1    2  502    0 -0.16083904621E+03 -0.10446026897E+03 -0.82935013471E+02  0.26971328676E+03  0.17054587071E+03 0.  0.
       24    2    3    3    0    0 -0.13703968526E+03 -0.28495291173E+02 -0.10344447757E+02  0.16187745012E+03  0.80656334536E+02 0.  0.
       -6    2    1    2    0  501  0.16083904621E+03  0.10446026897E+03  0.15010746812E+03  0.29895718124E+03  0.17338396019E+03 0.  0.
      -24    2    5    5    0    0  0.15416541085E+03  0.13126484672E+03  0.94930797144E+02  0.23707359846E+03  0.78705787291E+02 0.  0.
        5    1    3    3  502    0 -0.23799360942E+02 -0.75964977798E+02 -0.72590565714E+02  0.10783583664E+03  0.47000000000E+01 0. -1.
        2    1    4    4  503    0 -0.25746025105E+02 -0.94361351962E+01 -0.36812720858E+02  0.45902885237E+02  0.00000000000E+00 0. -1.
       -1    1    4    4    0  503 -0.11129366016E+03 -0.19059155977E+02  0.26468273101E+02  0.11597456488E+03  0.00000000000E+00 0.  1.
       -5    1    5    5    0  501  0.66736353507E+01 -0.26804577752E+02  0.55176670977E+02  0.61883582778E+02  0.47000000000E+01 0.  1.
       13    1    6    6    0    0  0.89902081288E+00  0.17694306145E+02  0.31328482193E+02  0.35991255950E+02  0.00000000000E+00 0. -1.
      -14    1    6    6    0    0  0.15326639004E+03  0.11357054058E+03  0.63602314951E+02  0.20108234251E+03  0.00000000000E+00 0.  1.
</event>
<event>
12   0  0.1544783E-01  0.1926543E+03  0.7957747E-01  0.1162118E+00
       21   -1    0    0  501  503  0.00000000000E+00  0.00000000000E+00  0.61655212481E+03  0.61655212481E+03  0.00000000000E+00 0. -1.
       21   -1    0    0  503  504  0.00000000000E+00  0.00000000000E+00 -0.76275989994E+02  0.76275989994E+02  0.00000000000E+00 0. -1.
        6    2    1    2  501    0 -0.12335814149E+02  0.76207769828E+02  0.43279358219E+03  0.47221941990E+03  0.17239808369E+03 0.  0.
       24    2    3    3    0    0 -0.59632721003E+02  0.89027322897E+00  0.24311423545E+03  0.26267212866E+03  0.79594357162E+02 0.  0.
       -6    2    1    2    0  504  0.12335814149E+02 -0.76207769828E+02  0.10748255263E+03  0.22060869490E+03  0.17651034149E+03 0.  0.
      -24    2    5    5    0    0  0.52323639774E+02 -0.10539846706E+03  0.72104358148E+02  0.15957731242E+03  0.80120409615E+02 0.  0.
        5    1    3    3  501    0  0.47296906854E+02  0.75317496599E+02  0.18967934673E+03  0.20954729125E+03  0.47000000000E+01 0. -1.
        2    1    4    4  502    0 -0.26490061358E+02 -0.37624115241E+02  0.14583786999E+03  0.15292475837E+03  0.00000000000E+00 0. -1.
       -1    1    4    4    0  502 -0.33142659644E+02  0.38514388470E+02  0.97276365460E+02  0.10974737029E+03  0.00000000000E+00 0.  1.
       -5    1    5    5    0  504 -0.39987825625E+02  0.29190697228E+02  0.35378194478E+02  0.61031382480E+02  0.47000000000E+01 0.  1.
       11    1    6    6    0    0  0.80258570807E+01  0.51013059905E+01 -0.10887653873E+02  0.14456095999E+02  0.00000000000E+00 0. -1.
      -12    1    6    6    0    0  0.44297782693E+02 -0.11049977305E+03  0.82992012020E+02  0.14512121642E+03  0.00000000000E+00 0.  1.
</event>
<event>
12   0  0.1544783E-01  0.1797183E+03  0.7957747E-01  0.1173686E+00
       21   -1    0    0  504  503  0.00000000000E+00  0.00000000000E+00  0.15692215085E+03  0.15692215085E+03  0.00000000000E+00 0. -1.
       21   -1    0    0  501  504  0.00000000000E+00  0.00000000000E+00 -0.20613148939E+03  0.20613148939E+03  0.00000000000E+00 0. -1.
        6    2    1    2  501    0 -0.13727302131E+02  0.40725439269E+02 -0.39736197814E+01  0.17772979959E+03  0.17240966266E+03 0.  0.
       24    2    3    3    0    0 -0.13574294368E+02  0.88470467532E+02 -0.26637503631E+02  0.12466990168E+03  0.82593841729E+02 0.  0.
       -6    2    1    2    0  503  0.13727302131E+02 -0.40725439269E+02 -0.45235718761E+02  0.18532384065E+03  0.17450402699E+03 0.  0.
      -24    2    5    5    0    0  0.25760531304E+02 -0.86405591237E+02 -0.60164805095E+02  0.13555997317E+03  0.81407440595E+02 0.  0.
        5    1    3    3  501    0 -0.15300776355E+00 -0.47745028263E+02  0.22663883850E+02  0.53059897911E+02  0.47000000000E+01 0. -1.
        4    1    4    4  502    0  0.25046655921E+02  0.68792107842E+02 -0.33972693090E+02  0.80708320203E+02  0.00000000000E+00 0. -1.
       -3    1    4    4    0  502 -0.38620950289E+02  0.19678359690E+02  0.73351894584E+01  0.43961581474E+02  0.00000000000E+00 0.  1.
       -5    1    5    5    0  503 -0.12033229173E+02  0.45680151968E+02  0.14929086333E+02  0.49763867483E+02  0.47000000000E+01 0.  1.
       11    1    6    6    0    0 -0.17426479082E+02  0.65520140201E+01 -0.56011186867E+01  0.19441800108E+02  0.00000000000E+00 0. -1.
      -12    1    6    6    0    0  0.43187010386E+02 -0.92957605257E+02 -0.54563686408E+02  0.11611817306E+03  0.00000000000E+00 0.  1.
</event>
<event>
12   0  0.1544783E-01  0.2191077E+03  0.7957747E-01  0.1141295E+00
       21   -1    0    0  504  503  0.00000000000E+00  0.00000000000E+00  0.24074720775E+03  0.24074720775E+03  0.00000000000E+00 0.  1.
       21   -1    0    0  501  504  0.00000000000E+00  0.00000000000E+00 -0.19650329727E+03  0.19650329727E+03  0.00000000000E+00 0. -1.
        6    2    1    2  501    0 -0.94110529394E+02  0.90149609197E+02  0.18873353964E+02  0.21991899890E+03  0.17613749971E+03 0.  0.
       24    2    3    3    0    0 -0.67696778368E+02  0.83005548410E+02  0.77371482347E+02  0.15516681846E+03  0.81348757832E+02 0.  0.
       -6    2    1    2    0  503  0.94110529394E+02 -0.90149609197E+02  0.25370556522E+02  0.21733150612E+03  0.17206270553E+03 0.  0.
      -24    2    5    5    0    0  0.39772663696E+02 -0.12347319163E+03  0.22529883921E+02  0.15335319561E+03  0.78626414814E+02 0.  0.
        5    1    3    3  501    0 -0.26413751027E+02  0.71440607862E+01 -0.58498128383E+02  0.64752180443E+02  0.47000000000E+01 0. -1.
      -11    1    4    4    0    0 -0.72737595305E+02  0.87908455264E+02  0.86829827840E+02  0.14338086790E+03  0.00000000000E+00 0.  1.
       12    1    4    4    0    0  0.50408169367E+01 -0.49029068531E+01 -0.94583454928E+01  0.11785950554E+02  0.00000000000E+00 0. -1.
       -5    1    5    5    0  503  0.54337865698E+02  0.33323582435E+02  0.28406726009E+01  0.63978310511E+02  0.47000000000E+01 0.  1.
        1    1    6    6  502    0  0.33133855679E+02 -0.95609705752E+02 -0.18947183614E+02  0.10294689890E+03  0.00000000000E+00 0. -1.
       -2    1    6    6    0  502  0.66388080170E+01 -0.27863485879E+02  0.41477067534E+02  0.50406296714E+02  0.00000000000E+00 0.  1.
</event>
<event>
12   0  0.1544783E-01  0.2156243E+03  0.7957747E-01  0.1143848E+00
       21   -1    0    0  504  503  0.00000000000E+00  0.00000000000E+00  0.16055631680E+03  0.16055631680E+03  0.00000000000E+00 0. -1.
       21   -1    0    0  501  504  0.00000000000E+00  0.00000000000E+00 -0.31319259513E+03  0.31319259513E+03  0.00000000000E+00 0. -1.
        6    2    1    2  501    0 -0.33761435237E+02  0.12290333492E+03 -0.14482244680E+03  0.25798305546E+03  0.17127945459E+03 0.  0.
       24    2    3    3    0    0  0.37028775686E+02  0.10089381625E+03 -0.12039266207E+03  0.17978729307E+03  0.79236262417E+02 0.  0.
       -6    2    1    2    0  503  0.33761435237E+02 -0.12290333492E+03 -0.78138315228E+01  0.21576585646E+03  0.17392177727E+03 0.  0.
      -24    2    5    5    0    0  0.73823660581E+02 -0.30082307987E+02  0.65881980818E+01  0.11353947339E+03  0.80578716466E+02 0.  0.
        5    1    3    3  501    0 -0.70790210923E+02  0.22009518674E+02 -0.24429784727E+02  0.78195762396E+02  0.47000000000E+01 0. -1.
        4    1    4    4  502    0 -0.64397805881E+01  0.81379807336E+02 -0.96773492005E+02  0.12660668454E+03  0.00000000000E+00 0. -1.
       -3    1    4    4    0  502  0.43468556274E+02  0.19514008910E+02 -0.23619170069E+02  0.53180608525E+02  0.00000000000E+00 0.  1.
       -5    1    5    5    0  503 -0.40062225344E+02 -0.92821026933E+02 -0.14402029605E+02  0.10222638308E+03  0.47000000000E+01 0.  1.
       11    1    6    6    0    0  0.19381220144E+02 -0.23028141031E+02  0.39401893040E+02  0.49582619422E+02  0.00000000000E+00 0. -1.
      -12    1    6    6    0    0  0.54442440437E+02 -0.70541669556E+01 -0.32813694958E+02  0.63956853964E+02  0.00000000000E+00 0.  1.
</event>
<event>
12   0  0.1544783E-01  0.1786730E+03  0.7957747E-01  0.1174667E+00
        2   -1    0    0  502    0  0.00000000000E+00  0.00000000000E+00  0.63198315635E+03  0.63198315635E+03  0.00000000000E+00 0.  1.
       -2   -1    0    0    0  501  0.00000000000E+00  0.00000000000E+00 -0.59868281012E+02  0.59868281012E+02  0.00000000000E+00 0. -1.
        6    2    1    2  502    0 -0.35948189290E+01 -0.52448697804E+02  0.14753137538E+03  0.23068084064E+03  0.16936456209E+03 0.  0.
       24    2    3    3    0    0 -0.27953572605E+02 -0.94663780715E+02  0.92110690025E+02  0.15672812283E+03  0.79603339561E+02 0.  0.
       -6    2    1    2    0  501  0.35948189290E+01  0.52448697804E+02  0.42458349996E+03  0.46117059672E+03  0.17217253619E+03 0.  0.
      -24    2    5    5    0    0 -0.38351317084E+02  0.87561741265E+02  0.34068422124E+03  0.36090303907E+03  0.71044936160E+02 0.  0.
        5    1    3    3  502    0  0.24358753675E+02  0.42215082912E+02  0.55420685350E+02  0.73952717803E+02  0.47000000000E+01 0. -1.
      -11    1    4    4    0    0  0.33944602912E+01 -0.11647454458E+02  0.61764694217E+02  0.62944920428E+02  0.00000000000E+00 0.  1.
       12    1    4    4    0    0 -0.31348032896E+02 -0.83016326258E+02  0.30345995808E+02  0.93783202405E+02  0.00000000000E+00 0. -1.
       -5    1    5    5    0  501  0.41946136013E+02 -0.35113043461E+02  0.83899278721E+02  0.10026755765E+03  0.47000000000E+01 0.  1.
        1    1    6    6  503    0 -0.31157335928E+02  0.58009148998E+02  0.10985046484E+03  0.12807406285E+03  0.00000000000E+00 0. -1.
       -2    1    6    6    0  503 -0.71939811562E+01  0.29552592267E+02  0.23083375640E+03  0.23282897622E+03  0.00000000000E+00 0.  1.
</event>
<event>
12   0  0.1544783E-01  0.2371782E+03  0.7957747E-01  0.1128837E+00
        1   -1    0    0  502    0  0.00000000000E+00  0.00000000000E+00  0.50348781371E+03  0.50348781371E+03  0.00000000000E+00 0.  1.
       -1   -1    0    0    0  501  0.00000000000E+00  0.00000000000E+00 -0.20567416149E+03  0.20567416149E+03  0.00000000000E+00 0. -1.
        6    2    1    2  502    0 -0.17142640349E+02 -0.16159034829E+03  0.38868072963E+03  0.45553093522E+03  0.17329285207E+03 0.  0.
       24    2    3    3    0    0  0.28412263683E+02 -0.68358530390E+02  0.29627054177E+03  0.31650160749E+03  0.83167831611E+02 0.  0.
       -6    2    1    2    0  501  0.17142640349E+02  0.16159034829E+03 -0.90867077403E+02  0.25363103999E+03  0.17223985576E+03 0.  0.
      -24    2    5    5    0    0 -0.31879687865E+02  0.56663024123E+02 -0.93046382941E+02  0.13770101199E+03  0.77954644008E+02 0.  0.
        5    1    3    3  502    0 -0.45554904032E+02 -0.93231817898E+02  0.92410187851E+02  0.13902932773E+03  0.47000000000E+01 0. -1.
        2    1    4    4  503    0  0.47584353181E+02 -0.85930957389E+01  0.11908046037E+03  0.12852341422E+03  0.00000000000E+00 0. -1.
       -1    1    4    4    0  503 -0.19172089497E+02 -0.59765434651E+02  0.17719008141E+03  0.18797819327E+03  0.00000000000E+00 0.  1.
       -5    1    5    5    0  501  0.49022328214E+02  0.10492732416E+03  0.21793055384E+01  0.11593002800E+03  0.47000000000E+01 0.  1.
       13    1    6    6    0    0  0.20678006471E+02  0.40947231749E+02 -0.50917369602E+02  0.68533453632E+02  0.00000000000E+00 0. -1.
      -14    1    6    6    0    0 -0.52557694335E+02  0.15715792374E+02 -0.42129013339E+02  0.69167558355E+02  0.00000000000E+00 0.  1.
</event>
<event>
12   0  0.1544783E-01  0.2542486E+03  0.7957747E-01  0.1118134E+00
       -2   -1    0    0    0  501  0.00000000000E+00  0.00000000000E+00  0.96980294742E+02  0.96980294742E+02  0.00000000000E+00 0.  1.
        2   -1    0    0  502    0  0.00000000000E+00  0.00000000000E+00 -0.68957558986E+03  0.68957558986E+03  0.00000000000E+00 0. -1.
        6    2    1    2  502    0 -0.43290259862E+02  0.18220371154E+03 -0.36934732688E+03  0.44900658068E+03  0.17354314311E+03 0.  0.
       24    2    3    3    0    0 -0.32132402880E+02  0.36367720519E+02 -0.74301698426E+02  0.11966383077E+03  0.80271960198E+02 0.  0.
       -6    2    1    2    0  501  0.43290259862E+02 -0.18220371154E+03 -0.22324796824E+03  0.33754930392E+03  0.17037499276E+03 0.  0.
      -24    2    5    5    0    0  0.72130910394E+02 -0.52766779705E+02 -0.10022117386E+03  0.15659797184E+03  0.80569472011E+02 0.  0.
        5    1    3    3  502    0 -0.11157856982E+02  0.14583599103E+03 -0.29504562845E+03  0.32934274991E+03  0.47000000000E+01 0. -1.
        4    1    4    4  503    0  0.20840462712E+02 -0.30077296803E+01 -0.10799789343E+01  0.21084062189E+02  0.00000000000E+00 0. -1.
       -3    1    4    4    0  503 -0.52972865592E+02  0.39375450200E+02 -0.73221719492E+02  0.98579768577E+02  0.00000000000E+00 0.  1.
       -5    1    5    5    0  501 -0.28840650532E+02 -0.12943693184E+03 -0.12302679438E+03  0.18095133208E+03  0.47000000000E+01 0.  1.
       13    1    6    6    0    0  0.64103980772E+02 -0.63709454472E+02 -0.10810159706E+03  0.14090482684E+03  0.00000000000E+00 0. -1.
      -14    1    6    6    0    0  0.80269296217E+01  0.10942674768E+02  0.78804231995E+01  0.15693145001E+02  0.00000000000E+00 0.  1.
</event>
<event>
12   0  0.1544783E-01  0.1966186E+03  0.7957747E-01  0.1158771E+00
       21   -1    0    0  504  503  0.00000000000E+00  0.00000000000E+00  0.71595078172E+02  0.71595078172E+02  0.00000000000E+00 0. -1.
       21   -1    0    0  501  504  0.00000000000E+00  0.00000000000E+00 -0.53551627611E+03  0.53551627611E+03  0.00000000000E+00 0. -1.
        6    2    1    2  501    0 -0.68132716477E+02  0.56738726779E+02 -0.25124954384E+03  0.31903792558E+03  0.17549220639E+03 0.  0.
       24    2    3    3    0    0 -0.25557706031E+02 -0.13262551559E+02 -0.21029837119E+03  0.22732152015E+03  0.81366928084E+02 0.  0.
       -6    2    1    2    0  503  0.68132716477E+02 -0.56738726779E+02 -0.21267165410E+03  0.28807342870E+03  0.17290378162E+03 0.  0.
      -24    2    5    5    0    0  0.27692422383E+02 -0.91769103777E+02 -0.19427882621E+03  0.23130256631E+03  0.81044285456E+02 0.  0.
        5    1    3    3  501    0 -0.42575010446E+02  0.70001278338E+02 -0.40951172652E+02  0.91716405430E+02  0.47000000000E+01 0. -1.
      -11    1    4    4    0    0 -0.44983438108E+02 -0.34351385769E+02 -0.12212121803E+03  0.13459984881E+03  0.00000000000E+00 0.  1.
       12    1    4    4    0    0  0.19425732077E+02  0.21088834211E+02 -0.88177153161E+02  0.92721671333E+02  0.00000000000E+00 0. -1.
       -5    1    5    5    0  503  0.40440294094E+02  0.35030376997E+02 -0.18392827892E+02  0.56770862393E+02  0.47000000000E+01 0.  1.
        1    1    6    6  502    0  0.56087783301E+02 -0.70130651704E+02 -0.13694207668E+03  0.16375982447E+03  0.00000000000E+00 0. -1.
       -2    1    6    6    0  502 -0.28395360918E+02 -0.21638452073E+02 -0.57336749528E+02  0.67542741847E+02  0.00000000000E+00 0.  1.
</event>
<event>
12   0  0.1544783E-01  0.1849176E+03  0.7957747E-01  0.1168912E+00
       21   -1    0    0  504  503  0.00000000000E+00  0.00000000000E+00  0.96089671674E+03  0.96089671674E+03  0.00000000000E+00 0. -1.
       21   -1    0    0  501  504  0.00000000000E+00  0.00000000000E+00 -0.55192391768E+02  0.55192391768E+02  0.00000000000E+00 0. -1.
        6    2    1    2  501    0  0.66373318938E+02 -0.28685029901E+02  0.12977940134E+03  0.21843378342E+03  0.16013237124E+03 0.  0.
       24    2    3    3    0    0  0.15036776357E+02  0.12425589558E+02  0.11099163181E+02  0.82667025459E+02  0.79562213116E+02 0.  0.
       -6    2    1    2    0  503 -0.66373318938E+02  0.28685029901E+02  0.77592492363E+03  0.79765532509E+03  0.17019483578E+03 0.  0.
      -24    2    5    5    0    0 -0.90645556870E+02  0.51147828198E+02  0.41654939115E+03  0.43673070390E+03  0.79922432054E+02 0.  0.
        5    1    3    3  501    0  0.51336542581E+02 -0.41110619460E+02  0.11868023816E+03  0.13576675796E+03  0.47000000000E+01 0. -1.
      -13    1    4    4    0    0 -0.13484301908E+02  0.16060821115E+01  0.39019000584E+02  0.41314504769E+02  0.00000000000E+00 0.  1.
       14    1    4    4    0    0  0.28521078266E+02  0.10819507447E+02 -0.27919837403E+02  0.41352520690E+02  0.00000000000E+00 0. -1.
       -5    1    5    5    0  503  0.24272237931E+02 -0.22462798297E+02  0.35937553247E+03  0.36092462119E+03  0.47000000000E+01 0.  1.
        3    1    6    6  502    0 -0.62547563896E+01  0.25295025714E+02  0.21667278630E+03  0.21823394930E+03  0.00000000000E+00 0. -1.
       -4    1    6    6    0  502 -0.84390800480E+02  0.25852802485E+02  0.19987660486E+03  0.21849675460E+03  0.00000000000E+00 0.  1.
</event>
<event>
12   0  0.1544783E-01  0.1845366E+03  0.7957747E-01  0.1169256E+00
       21   -1    0    0  501  503  0.00000000000E+00  0.00000000000E+00  0.16220785070E+03  0.16220785070E+03  0.00000000000E+00 0. -1.
       21   -1    0    0  503  504  0.00000000000E+00  0.00000000000E+00 -0.24794539452E+03  0.24794539452E+03  0.00000000000E+00 0. -1.
        6    2    1    2  501    0  0.47087957803E+02 -0.39230431086E+02  0.38220610941E+02  0.18845312190E+03  0.17406166023E+03 0.  0.
       24    2    3    3    0    0  0.52260400632E+01 -0.38207219091E+02 -0.41476528245E+02  0.98302186721E+02  0.80348705238E+02 0.  0.
       -6    2    1    2    0  504 -0.47087957803E+02  0.39230431086E+02 -0.12395815476E+03  0.22170012331E+03  0.17328882841E+03 0.  0.
      -24    2    5    5    0    0  0.17812547343E+01 -0.21651975548E+02 -0.11612751426E+03  0.14309811124E+03  0.80743352402E+02 0.  0.
        5    1    3    3  501    0  0.41861917739E+02 -0.10232119950E+01  0.79697139186E+02  0.90150935181E+02  0.47000000000E+01 0. -1.
      -11    1    4    4    0    0  0.36296563795E+02 -0.84052798556E+01  0.17437835668E+01  0.37297855889E+02  0.00000000000E+00 0.  1.
       12    1    4    4    0    0 -0.31070523732E+02 -0.29801939236E+02 -0.43220311812E+02  0.61004330832E+02  0.00000000000E+00 0. -1.
       -5    1    5    5    0  504 -0.48869212537E+02  0.60882406634E+02 -0.78306404957E+01  0.78602012074E+02  0.47000000000E+01 0.  1.
        1    1    6    6  502    0  0.17360448228E+02  0.20513067455E+02 -0.83046660443E+02  0.87286418816E+02  0.00000000000E+00 0. -1.
       -2    1    6    6    0  502 -0.15579193494E+02 -0.42165043003E+02 -0.33080853821E+02  0.55811692421E+02  0.00000000000E+00 0.  1.
</event>
<event>
12   0  0.1544783E-01  0.1924247E+03  0.7957747E-01  0.1162315E+00
       -1   -1    0    0    0  501  0.00000000000E+00  0.00000000000E+00  0.75280868853E+02  0.75280868853E+02  0.00000000000E+00 0. -1.
        1   -1    0    0  502    0  0.00000000000E+00  0.00000000000E+00 -0.61165532598E+03  0.61165532598E+03  0.00000000000E+00 0.  1.
        6    2    1    2  502    0 -0.45252671705E+02 -0.68896480987E+02 -0.11542625381E+03  0.22380957226E+03  0.17312704924E+03 0.  0.
       24    2    3    3    0    0  0.30165014123E+02 -0.52009923258E+02 -0.10438720321E+03  0.14559874305E+03  0.81776192073E+02 0.  0.
       -6    2    1    2    0  501  0.45252671705E+02  0.68896480987E+02 -0.42094820331E+03  0.46312662257E+03  0.17462631322E+03 0.  0.
      -24    2    5    5    0    0  0.63427613702E+02  0.10027960408E+03 -0.38676859183E+03  0.41307100577E+03  0.83418529162E+02 0.  0.
        5    1    3    3  502    0 -0.75417685828E+02 -0.16886557729E+02 -0.11039050601E+02  0.78210829210E+02  0.47000000000E+01 0. -1.
      -11    1    4    4    0    0  0.40926101640E+02 -0.69615282169E+02 -0.80314733245E+02  0.11389332589E+03  0.00000000000E+00 0.  1.
       12    1    4    4    0    0 -0.10761087518E+02  0.17605358911E+02 -0.24072469964E+02  0.31705417157E+02  0.00000000000E+00 0. -1.
       -5    1    5    5    0  501 -0.18174941997E+02 -0.31383123095E+02 -0.34179611485E+02  0.50055616799E+02  0.47000000000E+01 0.  1.
        1    1    6    6  503    0  0.70596918194E+02  0.47397254653E+02 -0.17335821049E+03  0.19308934137E+03  0.00000000000E+00 0. -1.
       -2    1    6    6    0  503 -0.71693044919E+01  0.52882349429E+02 -0.21341038134E+03  0.21998166440E+03  0.00000000000E+00 0.  1.
</event>
<event>
12   0  0.1544783E-01  0.1837467E+03  0.7957747E-01  0.1169972E+00
       21   -1    0    0  504  503  0.00000000000E+00  0.00000000000E+00  0.14250775124E+04  0.14250775124E+04  0.00000000000E+00 0. -1.
       21   -1    0    0  501  504  0.00000000000E+00  0.00000000000E+00 -0.38557098651E+02  0.38557098651E+02  0.00000000000E+00 0. -1.
        6    2    1    2  501    0  0.55018780643E+02 -0.22244633456E+02  0.21123140850E+03  0.27406868924E+03  0.16423473612E+03 0.  0.
       24    2    3    3    0    0  0.96739700188E+02 -0.12218499646E+02  0.18340899041E+03  0.22271369499E+03  0.80340966180E+02 0.  0.
       -6    2    1    2    0  503 -0.55018780643E+02  0.22244633456E+02  0.11752890053E+04  0.11895659218E+04  0.17389924243E+03 0.  0.
      -24    2    5    5    0    0 -0.88358730925E+02  0.22964376335E+02  0.11041886603E+04  0.11108930588E+04  0.80722752413E+02 0.  0.
        5    1    3    3  501    0 -0.41720919544E+02 -0.10026133810E+02  0.27822418092E+02  0.51354994259E+02  0.47000000000E+01 0. -1.
      -13    1    4    4    0    0 -0.13780442580E+02 -0.72708669312E+01  0.26126837673E+02  0.30420022196E+02  0.00000000000E+00 0.  1.
       14    1    4    4    0    0  0.11052014277E+03 -0.49476327151E+01  0.15728215273E+03  0.19229367279E+03  0.00000000000E+00 0. -1.
       -5    1    5    5    0  503  0.33339950282E+02 -0.71974287846E+00  0.71100345030E+02  0.78672863034E+02  0.47000000000E+01 0.  1.
        3    1    6    6  502    0 -0.57587696021E+01  0.37429710987E+02  0.31963347962E+03  0.32186908516E+03  0.00000000000E+00 0. -1.
       -4    1    6    6    0  502 -0.82599961323E+02 -0.14465334652E+02  0.78455518064E+03  0.78902397365E+03  0.00000000000E+00 0.  1.
</event>
<event>
12   0  0.1544783E-01  0.2040798E+03  0.7957747E-01  0.1152701E+00
       21   -1    0    0  501  503  0.00000000000E+00  0.00000000000E+00  0.21507499258E+03  0.21507499258E+03  0.00000000000E+00 0. -1.
       21   -1    0    0  503  504  0.00000000000E+00  0.00000000000E+00 -0.25492336971E+03  0.25492336971E+03  0.00000000000E+00 0.  1.
        6    2    1    2  501    0 -0.29938172735E+02 -0.10473272549E+03  0.95584541210E+02  0.22506852868E+03  0.17220394917E+03 0.  0.
       24    2    3    3    0    0  0.41616786064E+02 -0.93637774896E+02  0.49214459049E+02  0.13895532077E+03  0.79915758282E+02 0.  0.
       -6    2    1    2    0  504  0.29938172735E+02  0.10473272549E+03 -0.13543291834E+03  0.24492983360E+03  0.17257841708E+03 0.  0.
      -24    2    5    5    0    0  0.58131644328E+02  0.38891057921E+02 -0.60755674986E+02  0.14135002040E+03  0.10675567322E+03 0.  0.
        5    1    3    3  501    0 -0.71554958798E+02 -0.11094950595E+02  0.46370082161E+02  0.86113207912E+02  0.47000000000E+01 0. -1.
      -11    1    4    4    0    0  0.19468597403E+02  0.16128820395E+01  0.35072781799E+02  0.40146328555E+02  0.00000000000E+00 0.  1.
       12    1    4    4    0    0  0.22148188661E+02 -0.95250656935E+02  0.14141677250E+02  0.98808992217E+02  0.00000000000E+00 0. -1.
       -5    1    5    5    0  504 -0.28193471594E+02  0.65841667569E+02 -0.74677243354E+02  0.10357981321E+03  0.47000000000E+01 0.  1.
        1    1    6    6  502    0  0.34404864411E+02  0.11146619403E+02 -0.88430117368E+02  0.95539664417E+02  0.00000000000E+00 0. -1.
       -2    1    6    6    0  502  0.23726779917E+02  0.27744438518E+02  0.27674442381E+02  0.45810355980E+02  0.00000000000E+00 0.  1.
</event>
<event>
12   0  0.1544783E-01  0.1833280E+03  0.7957747E-01  0.1170353E+00
        2   -1    0    0  502    0  0.00000000000E+00  0.00000000000E+00  0.20983811536E+03  0.20983811536E+03  0.00000000000E+00 0. -1.
       -2   -1    0    0    0  501  0.00000000000E+00  0.00000000000E+00 -0.16070898664E+03  0.16070898664E+03  0.00000000000E+00 0.  1.
        6    2    1    2  502    0  0.61996541648E+02  0.11321464360E+02  0.13894874989E+02  0.18441260544E+03  0.17275182998E+03 0.  0.
       24    2    3    3    0    0  0.17060143980E+02  0.13401607502E+01 -0.56869013118E+02  0.99863660339E+02  0.80285873351E+02 0.  0.
       -6    2    1    2    0  501 -0.61996541648E+02 -0.11321464360E+02  0.35234253731E+02  0.18613449656E+03  0.17156005199E+03 0.  0.
      -24    2    5    5    0    0 -0.46754706785E+02 -0.73359357867E+02  0.30767203542E+02  0.12192345157E+03  0.79693846912E+02 0.  0.
        5    1    3    3  502    0  0.44936397667E+02  0.99813036095E+01  0.70763888108E+02  0.84548945098E+02  0.47000000000E+01 0. -1.
        2    1    4    4  503    0  0.25665160530E+02  0.36136637881E+02 -0.41985059983E+02  0.61051636539E+02  0.00000000000E+00 0. -1.
       -1    1    4    4    0  503 -0.86050165492E+01 -0.34796477130E+02 -0.14883953135E+02  0.38812023800E+02  0.00000000000E+00 0.  1.
       -5    1    5    5    0  501 -0.15241834863E+02  0.62037893507E+02  0.44670501897E+01  0.64211044986E+02  0.47000000000E+01 0.  1.
       13    1    6    6    0    0 -0.39677556917E+02 -0.35257728225E+02  0.54825007473E+02  0.76309877257E+02  0.00000000000E+00 0. -1.
      -14    1    6    6    0    0 -0.70771498671E+01 -0.38101629642E+02 -0.24057803931E+02  0.45613574313E+02  0.00000000000E+00 0.  1.
</event>
<event>
12   0  0.1544783E-01  0.1838496E+03  0.7957747E-01  0.1169878E+00
       21   -1    0    0  504  503  0.00000000000E+00  0.00000000000E+00  0.41536300686E+03  0.41536300686E+03  0.00000000000E+00 0.  1.
       21   -1    0    0  501  504  0.00000000000E+00  0.00000000000E+00 -0.82242605967E+02  0.82242605967E+02  0.00000000000E+00 0.  1.
        6    2    1    2  501    0 -0.45192668422E+02  0.30979202633E+02  0.13038490022E+03  0.22539055824E+03  0.17549527989E+03 0.  0.
       24    2    3    3    0    0  0.11530262239E+01 -0.75806657335E+00 -0.30263815979E+01  0.80560182333E+02  0.80491489348E+02 0.  0.
       -6    2    1    2    0  503  0.45192668422E+02 -0.30979202633E+02  0.20273550067E+03  0.27221505458E+03  0.17319718368E+03 0.  0.
      -24    2    5    5    0    0 -0.56700397628E+01 -0.35368812451E+02  0.20136069954E+03  0.22092895670E+03  0.83548610652E+02 0.  0.
        5    1    3    3  501    0 -0.46345694646E+02  0.31737269206E+02  0.13341128182E+03  0.14483037591E+03  0.47000000000E+01 0. -1.
      -11    1    4    4    0    0  0.16980107460E+02  0.28585153346E+02 -0.24148964114E+02  0.41092669771E+02  0.00000000000E+00 0.  1.
       12    1    4    4    0    0 -0.15827081236E+02 -0.29343219919E+02  0.21122582516E+02  0.39467512562E+02  0.00000000000E+00 0. -1.
       -5    1    5    5    0  503  0.50862708184E+02  0.43896098181E+01  0.13748011243E+01  0.51286097886E+02  0.47000000000E+01 0.  1.
        1    1    6    6  502    0  0.18501385274E+00  0.20849229017E+02  0.13717790126E+02  0.24958011673E+02  0.00000000000E+00 0. -1.
       -2    1    6    6    0  502 -0.58550536155E+01 -0.56218041468E+02  0.18764290942E+03  0.19597094502E+03  0.00000000000E+00 0.  1.
</event>
<event>
12   0  0.1544783E-01  0.2190002E+03  0.7957747E-01  0.1141373E+00
       21   -1    0    0  504  503  0.00000000000E+00  0.00000000000E+00  0.65741797327E+03  0.65741797327E+03  0.00000000000E+00 0.  1.
       21   -1    0    0  501  504  0.00000000000E+00  0.00000000000E+00 -0.13323741229E+03  0.13323741229E+03  0.00000000000E+00 0. -1.
        6    2    1    2  501    0 -0.12994330823E+03  0.29282032836E+02 -0.48213856958E+01  0.21905329481E+03  0.17383440225E+03 0.  0.
       24    2    3    3    0    0 -0.67711603595E+02  0.23721080647E+02  0.64323568129E+02  0.12574293156E+03  0.80784976892E+02 0.  0.
       -6    2    1    2    0  503  0.12994330823E+03 -0.29282032836E+02  0.52900194667E+03  0.57160209075E+03  0.17071376560E+03 0.  0.
      -24    2    5    5    0    0  0.68600739145E+01 -0.13108345726E+02  0.12935474579E+03  0.15309158204E+03  0.80532557962E+02 0.  0.
        5    1    3    3  501    0 -0.62231704637E+02  0.55609521894E+01 -0.69144953825E+02  0.93310363255E+02  0.47000000000E+01 0. -1.
        4    1    4    4  502    0  0.12984869985E+02  0.23429148394E+02  0.21744882902E+02  0.34501764816E+02  0.00000000000E+00 0. -1.
       -3    1    4    4    0  502 -0.80696473580E+02  0.29193225289E+00  0.42578685227E+02  0.91241166742E+02  0.00000000000E+00 0.  1.
       -5    1    5    5    0  503  0.12308323432E+03 -0.16173687110E+02  0.39964720088E+03  0.41851050870E+03  0.47000000000E+01 0.  1.
       11    1    6    6    0    0 -0.11797809610E+02  0.21070276768E+02  0.10366669290E+03  0.10644213495E+03  0.00000000000E+00 0. -1.
      -12    1    6    6    0    0  0.18657883524E+02 -0.34178622494E+02  0.25688052888E+02  0.46649447096E+02  0.00000000000E+00 0.  1.
</event>
<event>
12   0  0.1544783E-01  0.1812137E+03  0.7957747E-01  0.1172295E+00
       21   -1    0    0  501  503  0.00000000000E+00  0.00000000000E+00  0.26736326821E+03  0.26736326821E+03  0.00000000000E+00 0. -1.
       21   -1    0    0  503  504  0.00000000000E+00  0.00000000000E+00 -0.21617768350E+03  0.21617768350E+03  0.00000000000E+00 0. -1.
        6    2    1    2  501    0  0.36125366334E+02 -0.31539485903E+02  0.18645517236E+03  0.26000756269E+03  0.17475302599E+03 0.  0.
       24    2    3    3    0    0  0.49199669745E+02 -0.84179813878E+02  0.12270292017E+03  0.17617212151E+03  0.80459686873E+02 0.  0.
       -6    2    1    2    0  504 -0.36125366334E+02  0.31539485903E+02 -0.13526958765E+03  0.22353338902E+03  0.17137541656E+03 0.  0.
      -24    2    5    5    0    0 -0.52550372902E+02 -0.94461749326E+01 -0.22711767818E+02  0.10253356241E+03  0.84537181818E+02 0.  0.
        5    1    3    3  501    0 -0.13074303411E+02  0.52640327976E+02  0.63752252185E+02  0.83835441179E+02  0.47000000000E+01 0. -1.
        4    1    4    4  502    0  0.31692358730E+01 -0.51826702064E+02  0.10508857068E+03  0.11721629063E+03  0.00000000000E+00 0. -1.
       -3    1    4    4    0  502  0.46030433872E+02 -0.32353111814E+02  0.17614349495E+02  0.58955830879E+02  0.00000000000E+00 0.  1.
       -5    1    5    5    0  504  0.16425006568E+02  0.40985660835E+02 -0.11255781983E+03  0.12099982661E+03  0.47000000000E+01 0.  1.
       13    1    6    6    0    0 -0.59990669925E+02 -0.36864106598E+02 -0.23152198840E+02  0.74120625635E+02  0.00000000000E+00 0. -1.
      -14    1    6    6    0    0  0.74402970233E+01  0.27417931666E+02  0.44043102248E+00  0.28412936774E+02  0.00000000000E+00 0.  1.
</event>
<event>
12   0  0.1544783E-01  0.1770349E+03  0.7957747E-01  0.1176220E+00
       21   -1    0    0  501  503  0.00000000000E+00  0.00000000000E+00  0.79920835729E+02  0.79920835729E+02  0.00000000000E+00 0.  1.
       21   -1    0    0  503  504  0.00000000000E+00  0.00000000000E+00 -0.43110840089E+03  0.43110840089E+03  0.00000000000E+00 0.  1.
        6    2    1    2  501    0 -0.10043980835E+02  0.34183864630E+02 -0.96431406166E+02  0.20080021899E+03  0.17248853208E+03 0.  0.
       24    2    3    3    0    0 -0.40377768725E+02  0.53035790217E+02 -0.12350176923E+03  0.15573994444E+03  0.67520989641E+02 0.  0.
       -6    2    1    2    0  504  0.10043980835E+02 -0.34183864630E+02 -0.25475615900E+03  0.31022901763E+03  0.17341258513E+03 0.  0.
      -24    2    5    5    0    0 -0.80571400377E+01 -0.78441223531E+02 -0.11100282573E+03  0.15865898359E+03  0.81443862259E+02 0.  0.
        5    1    3    3  501    0  0.30333787890E+02 -0.18851925586E+02  0.27070363060E+02  0.45060274547E+02  0.47000000000E+01 0. -1.
      -13    1    4    4    0    0 -0.33126056274E+02  0.53940802109E+02 -0.46878337386E+02  0.78768802533E+02  0.00000000000E+00 0.  1.
       14    1    4    4    0    0 -0.72517124510E+01 -0.90501189200E+00 -0.76623431840E+02  0.76971141910E+02  0.00000000000E+00 0. -1.
       -5    1    5    5    0  504  0.18101120873E+02  0.44257358901E+02 -0.14375333327E+03  0.15157003404E+03  0.47000000000E+01 0.  1.
        3    1    6    6  502    0  0.18003351554E+02 -0.38954228708E+02 -0.57950845563E+01  0.43302836009E+02  0.00000000000E+00 0. -1.
       -4    1    6    6    0  502 -0.26060491591E+02 -0.39486994823E+02 -0.10520774118E+03  0.11535614758E+03  0.00000000000E+00 0.  1.
</event>
<event>
12   0  0.1544783E-01  0.1812315E+03  0.7957747E-01  0.1172279E+00
       21   -1    0    0  501  503  0.00000000000E+00  0.00000000000E+00  0.13286591008E+03  0.13286591008E+03  0.00000000000E+00 0. -1.
       21   -1    0    0  503  504  0.00000000000E+00  0.00000000000E+00 -0.30914274612E+03  0.30914274612E+03  0.00000000000E+00 0. -1.
        6    2    1    2  501    0  0.34185085377E+02  0.35395400123E+02  0.11442805851E+02  0.18159235220E+03  0.17442302072E+03 0.  0.
       24    2    3    3    0    0  0.68015905815E+02  0.21113778674E+02 -0.42672768232E+02  0.11602502435E+03  0.81048664594E+02 0.  0.
       -6    2    1    2    0  504 -0.34185085377E+02 -0.35395400123E+02 -0.18771964188E+03  0.26041630401E+03  0.17365636479E+03 0.  0.
      -24    2    5    5    0    0  0.14485362773E+02 -0.35469273550E+02 -0.19095784104E+03  0.21141228464E+03  0.82233581586E+02 0.  0.
        5    1    3    3  501    0 -0.33830820439E+02  0.14281621450E+02  0.54115574083E+02  0.65567327848E+02  0.47000000000E+01 0. -1.
      -13    1    4    4    0    0  0.54899027152E+02  0.34052758067E+02  0.51186186401E+01  0.64805044332E+02  0.00000000000E+00 0.  1.
       14    1    4    4    0    0  0.13116878664E+02 -0.12938979393E+02 -0.47791386872E+02  0.51219980015E+02  0.00000000000E+00 0. -1.
       -5    1    5    5    0  504 -0.48670448150E+02  0.73873427030E-01  0.32381991571E+01  0.49004019368E+02  0.47000000000E+01 0.  1.
        1    1    6    6  502    0  0.32025789072E+02  0.73427104786E+01 -0.32024294654E+02  0.45881608635E+02  0.00000000000E+00 0. -1.
       -2    1    6    6    0  502 -0.17540426299E+02 -0.42811984029E+02 -0.15893354639E+03  0.16553067600E+03  0.00000000000E+00 0.  1.
</event>
<event>
12   0  0.1544783E-01  0.3384439E+03  0.7957747E-01  0.1076136E+00
        2   -1    0    0  502    0  0.00000000000E+00  0.00000000000E+00  0.10033636290E+04  0.10033636290E+04  0.00000000000E+00 0.  1.
       -2   -1    0    0    0  501  0.00000000000E+00  0.00000000000E+00 -0.11462996986E+03  0.11462996986E+03  0.00000000000E+00 0. -1.
        6    2    1    2  502    0  0.84774083705E+02  0.27834684883E+03  0.48032650099E+03  0.58766451746E+03  0.17312545739E+03 0.  0.
       24    2    3    3    0    0  0.26101082357E+02  0.16862929988E+03  0.39175847325E+03  0.43486776626E+03  0.80735156507E+02 0.  0.
       -6    2    1    2    0  501 -0.84774083705E+02 -0.27834684883E+03  0.40840715817E+03  0.53032908142E+03  0.17259465298E+03 0.  0.
      -24    2    5    5    0    0 -0.15484726137E+01 -0.22412872917E+03  0.29244951468E+03  0.37757315871E+03  0.82454148070E+02 0.  0.
        5    1    3    3  502    0  0.58673001348E+02  0.10971754896E+03  0.88568027745E+02  0.15279675119E+03  0.47000000000E+01 0. -1.
        4    1    4    4  503    0 -0.22418458117E+02  0.93616827288E+02  0.16327548295E+03  0.18954044674E+03  0.00000000000E+00 0. -1.
       -3    1    4    4    0  503  0.48519540474E+02  0.75012472588E+02  0.22848299030E+03  0.24532731953E+03  0.00000000000E+00 0.  1.
       -5    1    5    5    0  501 -0.83225611091E+02 -0.54218119663E+02  0.11595764349E+03  0.15275592271E+03  0.47000000000E+01 0.  1.
       13    1    6    6    0    0  0.26119288907E+02 -0.22395506670E+02  0.53799713870E+02  0.63860670092E+02  0.00000000000E+00 0. -1.
      -14    1    6    6    0    0 -0.27667761521E+02 -0.20173322250E+03  0.23864980081E+03  0.31371248861E+03  0.00000000000E+00 0.  1.
</event>
<event>
12   0  0.1544783E-01  0.1986054E+03  0.7957747E-01  0.1157126E+00
       21   -1    0    0  501  503  0.00000000000E+00  0.00000000000E+00  0.37424682717E+03  0.37424682717E+03  0.00000000000E+00 0. -1.
       21   -1    0    0  503  504  0.00000000000E+00  0.00000000000E+00 -0.13901681581E+03  0.13901681581E+03  0.00000000000E+00 0. -1.
        6    2    1    2  501    0  0.56091120959E+01  0.95949001704E+02  0.24457115521E+03  0.31505423374E+03  0.17380002062E+03 0.  0.
       24    2    3    3    0    0 -0.15741984234E+02  0.81135323742E+02  0.25955874498E+03  0.28468925035E+03  0.82743436848E+02 0.  0.
       -6    2    1    2    0  504 -0.56091120959E+01 -0.95949001704E+02 -0.93411438564E+01  0.19820940924E+03  0.17309546463E+03 0.  0.
      -24    2    5    5    0    0  0.67602445690E+02 -0.73587279605E+02 -0.65108525631E+01  0.12146255681E+03  0.68742876892E+02 0.  0.
        5    1    3    3  501    0  0.21351096330E+02  0.14813677962E+02 -0.14987589767E+02  0.30364983390E+02  0.47000000000E+01 0. -1.
        2    1    4    4  502    0 -0.42587424492E+02  0.67270753044E+02  0.13694447127E+03  0.15840716888E+03  0.00000000000E+00 0. -1.
       -1    1    4    4    0  502  0.26845440258E+02  0.13864570697E+02  0.12261427371E+03  0.12628208147E+03  0.00000000000E+00 0.  1.
       -5    1    5    5    0  504 -0.73211557786E+02 -0.22361722099E+02 -0.28302912933E+01  0.76746852427E+02  0.47000000000E+01 0.  1.
       13    1    6    6    0    0  0.10013238394E+01 -0.18005952491E+02 -0.26868174106E+02  0.32359168011E+02  0.00000000000E+00 0. -1.
      -14    1    6    6    0    0  0.66601121850E+02 -0.55581327114E+02  0.20357321543E+02  0.89103388801E+02  0.00000000000E+00 0.  1.
</event>
<event>
12   0  0.1544783E-01  0.2005137E+03  0.7957747E-01  0.1155566E+00
       21   -1    0    0  501  503  0.00000000000E+00  0.00000000000E+00  0.17284888581E+03  0.17284888581E+03  0.00000000000E+00 0.  1.
       21   -1    0    0  503  504  0.00000000000E+00  0.00000000000E+00 -0.26739871690E+03  0.26739871690E+03  0.00000000000E+00 0.  1.
        6    2    1    2  501    0 -0.54097931789E+02 -0.73198184179E+02  0.37865714741E+02  0.20405770293E+03  0.17866497525E+03 0.  0.
       24    2    3    3    0    0 -0.91202883870E+02 -0.87687296337E+02  0.57695899140E+02  0.15931356305E+03  0.77749383470E+02 0.  0.
       -6    2    1    2    0  504  0.54097931789E+02  0.73198184179E+02 -0.13241554584E+03  0.23618989978E+03  0.17311046065E+03 0.  0.
      -24    2    5    5    0    0 -0.26645267543E+02  0.61089817050E+02 -0.43294013869E+02  0.11523199697E+03  0.83439232129E+02 0.  0.
        5    1    3    3  501    0  0.37104952081E+02  0.14489112157E+02 -0.19830184399E+02  0.44744139877E+02  0.47000000000E+01 0. -1.
        2    1    4    4  502    0  0.54649912035E+01 -0.34504809421E+02  0.27885220320E+00  0.34936023824E+02  0.00000000000E+00 0. -1.
       -1    1    4    4    0  502 -0.96667875073E+02 -0.53182486915E+02  0.57417046936E+02  0.12437753923E+03  0.00000000000E+00 0.  1.
       -5    1    5    5    0  504  0.80743199333E+02  0.12108367129E+02 -0.89121531967E+02  0.12095790281E+03  0.47000000000E+01 0.  1.
       13    1    6    6    0    0  0.13395623219E+02  0.30735914456E+02  0.16301978513E+02  0.37281277638E+02  0.00000000000E+00 0. -1.
      -14    1    6    6    0    0 -0.40040890762E+02  0.30353902594E+02 -0.59595992382E+02  0.77950719328E+02  0.00000000000E+00 0.  1.
</event>
<event>
12   0  0.1544783E-01  0.1854903E+03  0.7957747E-01  0.1168397E+00
       21   -1    0    0  501  503  0.00000000000E+00  0.00000000000E+00  0.37091864330E+03  0.37091864330E+03  0.00000000000E+00 0.  1.
       21   -1    0    0  503  504  0.00000000000E+00  0.00000000000E+00 -0.28181409524E+03  0.28181409524E+03  0.00000000000E+00 0.  1.
        6    2    1    2  501    0  0.56244717191E+02  0.40054626261E+02  0.31217092900E+03  0.36262027152E+03  0.17109918499E+03 0.  0.
       24    2    3    3    0    0  0.38889060573E+02  0.24162646494E+02  0.48387915055E+02  0.97747958345E+02  0.71533771880E+02 0.  0.
       -6    2    1    2    0  504 -0.56244717191E+02 -0.40054626261E+02 -0.22306638095E+03  0.29011246702E+03  0.17215920515E+03 0.  0.
      -24    2    5    5    0    0 -0.74828318017E+02 -0.80502039295E+02 -0.13660328893E+03  0.19275077167E+03  0.80078373639E+02 0.  0.
        5    1    3    3  501    0  0.17355656618E+02  0.15891979767E+02  0.26378301395E+03  0.26487231317E+03  0.47000000000E+01 0. -1.
      -13    1    4    4    0    0  0.57098203069E+01  0.34964332292E+02  0.51726248365E+02  0.62695385401E+02  0.00000000000E+00 0.  1.
       14    1    4    4    0    0  0.33179240266E+02 -0.10801685799E+02 -0.33383333099E+01  0.35052572944E+02  0.00000000000E+00 0. -1.
       -5    1    5    5    0  504  0.18583600827E+02  0.40447413035E+02 -0.86463092015E+02  0.97361695352E+02  0.47000000000E+01 0.  1.
        3    1    6    6  502    0 -0.24653451603E+02 -0.77893555023E+02 -0.60942135827E+02  0.10192714314E+03  0.00000000000E+00 0. -1.
       -4    1    6    6    0  502 -0.50174866414E+02 -0.26084842727E+01 -0.75661153105E+02  0.90823628529E+02  0.00000000000E+00 0.  1.
</event>
<event>
12   0  0.1544783E-01  0.2656584E+03  0.7957747E-01  0.1111477E+00
       21   -1    0    0  501  503  0.00000000000E+00  0.00000000000E+00  0.31649014047E+03  0.31649014047E+03  0.00000000000E+00 0.  1.
       21   -1    0    0  503  504  0.00000000000E+00  0.00000000000E+00 -0.32902371812E+03  0.32902371812E+03  0.00000000000E+00 0.  1.
        6    2    1    2  501    0 -0.13893099563E+03  0.14771962599E+03  0.17707648463E+03  0.31926550677E+03  0.17161431453E+03 0.  0.
       24    2    3    3    0    0 -0.16292696663E+03  0.11370775072E+03  0.17632790872E+03  0.27736962810E+03  0.79798058681E+02 0.  0.
       -6    2    1    2    0  504  0.13893099563E+03 -0.14771962599E+03 -0.18961006228E+03  0.32624835181E+03  0.17135665115E+03 0.  0.
      -24    2    5    5    0    0  0.79758383994E+02 -0.27996238161E+02 -0.48947650887E+02  0.13223007551E+03  0.89127611734E+02 0.  0.
        5    1    3    3  501    0  0.23995970997E+02  0.34011875270E+02  0.74857590815E+00  0.41895878667E+02  0.47000000000E+01 0. -1.
        4    1    4    4  502    0 -0.12009226666E+03  0.40890149557E+02  0.83619054164E+02  0.15194177523E+03  0.00000000000E+00 0. -1.
       -3    1    4    4    0  502 -0.42834699968E+02  0.72817601168E+02  0.92708854559E+02  0.12542785287E+03  0.00000000000E+00 0.  1.
       -5    1    5    5    0  504  0.59172611635E+02 -0.11972338783E+03 -0.14066241139E+03  0.19401827631E+03  0.47000000000E+01 0.  1.
       13    1    6    6    0    0  0.62686700852E+02  0.24598335952E+02 -0.30631369736E+02  0.73979601292E+02  0.00000000000E+00 0. -1.
      -14    1    6    6    0    0  0.17071683142E+02 -0.52594574113E+02 -0.18316281151E+02  0.58250474218E+02  0.00000000000E+00 0.  1.
</event>
<event>
12   0  0.1544783E-01  0.2137678E+03  0.7957747E-01  0.1145230E+00
       -4   -1    0    0    0  501  0.00000000000E+00  0.00000000000E+00  0.10232374657E+03  0.10232374657E+03  0.00000000000E+00 0. -1.
        4   -1    0    0  502    0  0.00000000000E+00  0.00000000000E+00 -0.95465458597E+03  0.95465458597E+03  0.00000000000E+00 0.  1.
        6    2    1    2  502    0  0.12260028972E+03  0.26709181388E+02 -0.40885941720E+02  0.21791992203E+03  0.17341632212E+03 0.  0.
       24    2    3    3    0    0  0.24015463193E+02  0.58090740663E+02 -0.51593911575E+02  0.11380209982E+03  0.79609732996E+02 0.  0.
       -6    2    1    2    0  501 -0.12260028972E+03 -0.26709181388E+02 -0.81144489768E+03  0.83905841051E+03  0.17271937609E+03 0.  0.
      -24    2    5    5    0    0 -0.91764831876E+02 -0.49821814029E+02 -0.31919814460E+03  0.34528318315E+03  0.80187427466E+02 0.  0.
        5    1    3    3  502    0  0.98584826531E+02 -0.31381559274E+02  0.10707969855E+02  0.10411782222E+03  0.47000000000E+01 0. -1.
        4    1    4    4  503    0  0.49468937216E+02  0.44739410505E+02 -0.52748320621E+02  0.85036321239E+02  0.00000000000E+00 0. -1.
       -3    1    4    4    0  503 -0.25453474024E+02  0.13351330158E+02  0.11544090456E+01  0.28765778576E+02  0.00000000000E+00 0.  1.
       -5    1    5    5    0  501 -0.30835457848E+02  0.23112632641E+02 -0.49224675308E+03  0.49377522737E+03  0.47000000000E+01 0.  1.
       13    1    6    6    0    0 -0.20281006262E+02 -0.10103894201E+02 -0.88231419278E+01  0.24315750585E+02  0.00000000000E+00 0. -1.
      -14    1    6    6    0    0 -0.71483825614E+02 -0.39717919828E+02 -0.31037500267E+03  0.32096743256E+03  0.00000000000E+00 0.  1.
</event>
<event>
12   0  0.1544783E-01  0.3005566E+03  0.7957747E-01  0.1093178E+00
       21   -1    0    0  504  503  0.00000000000E+00  0.00000000000E+00  0.16879268426E+03  0.16879268426E+03  0.00000000000E+00 0. -1.
       21   -1    0    0  501  504  0.00000000000E+00  0.00000000000E+00 -0.10133209949E+04  0.10133209949E+04  0.00000000000E+00 0. -1.
        6    2    1    2  501    0 -0.20136404292E+03  0.14157933831E+03 -0.82868280904E+03  0.88113963861E+03  0.17058627705E+03 0.  0.
       24    2    3    3    0    0 -0.42548853048E+02  0.10101500378E+03 -0.37105881190E+03  0.39502283934E+03  0.79649016514E+02 0.  0.
       -6    2    1    2    0  503  0.20136404292E+03 -0.14157933831E+03 -0.15845501589E+02  0.30097404054E+03  0.17245899902E+03 0.  0.
      -24    2    5    5    0    0  0.73068714483E+02 -0.10912448315E+03  0.32607921186E+02  0.15996754034E+03  0.85317920619E+02 0.  0.
        5    1    3    3  501    0 -0.15881518987E+03  0.40564334527E+02 -0.45762399715E+03  0.48611679927E+03  0.47000000000E+01 0. -1.
      -11    1    4    4    0    0 -0.50837606769E+01 -0.12045967117E+02 -0.16869273974E+02  0.21342969587E+02  0.00000000000E+00 0.  1.
       12    1    4    4    0    0 -0.37465092371E+02  0.11306097089E+03 -0.35418953793E+03  0.37367986976E+03  0.00000000000E+00 0. -1.
       -5    1    5    5    0  503  0.12829532844E+03 -0.32454855158E+02 -0.48453422776E+02  0.14100650021E+03  0.47000000000E+01 0.  1.
        1    1    6    6  502    0  0.61989126208E+02 -0.17889809070E+02  0.17282272183E+02  0.66793517412E+02  0.00000000000E+00 0. -1.
       -2    1    6    6    0  502  0.11079588276E+02 -0.91234674078E+02  0.15325649004E+02  0.93174022924E+02  0.00000000000E+00 0.  1.
</event>
<event>
12   0  0.1544783E-01  0.2256435E+03  0.7957747E-01  0.1136643E+00
       21   -1    0    0  501  503  0.00000000000E+00  0.00000000000E+00  0.61660191162E+03  0.61660191162E+03  0.00000000000E+00 0.  1.
       21   -1    0    0  503  504  0.00000000000E+00  0.00000000000E+00 -0.91080343103E+02  0.91080343103E+02  0.00000000000E+00 0.  1.
        6    2    1    2  501    0 -0.14495102624E+03  0.52821632068E+01  0.37103011937E+03  0.43421816696E+03  0.17275232495E+03 0.  0.
       24    2    3    3    0    0 -0.12507988940E+03 -0.53764718897E+02  0.19509872582E+03  0.24752231375E+03  0.68323928892E+02 0.  0.
       -6    2    1    2    0  504  0.14495102624E+03 -0.52821632068E+01  0.15449144915E+03  0.27346408777E+03  0.17284761550E+03 0.  0.
      -24    2    5    5    0    0  0.15725100892E+03  0.11100255652E+02  0.17154034520E+03  0.24640067930E+03  0.80225365365E+02 0.  0.
        5    1    3    3  501    0 -0.19871136841E+02  0.59046882104E+02  0.17593139356E+03  0.18669585320E+03  0.47000000000E+01 0. -1.
        4    1    4    4  502    0 -0.25095831370E+02 -0.30410551248E+02  0.19212280192E+02  0.43860165179E+02  0.00000000000E+00 0. -1.
       -3    1    4    4    0  502 -0.99984058026E+02 -0.23354167649E+02  0.17588644563E+03  0.20366214857E+03  0.00000000000E+00 0.  1.
       -5    1    5    5    0  504 -0.12299982681E+02 -0.16382418859E+02 -0.17048896049E+02  0.27063408471E+02  0.47000000000E+01 0.  1.
       13    1    6    6    0    0  0.14709476091E+02 -0.23426449845E+02  0.44341862776E+02  0.52262491652E+02  0.00000000000E+00 0. -1.
      -14    1    6    6    0    0  0.14254153283E+03  0.34526705497E+02  0.12719848242E+03  0.19413818765E+03  0.00000000000E+00 0.  1.
</event>
<event>
12   0  0.1544783E-01  0.2078139E+03  0.7957747E-01  0.1149769E+00
        4   -1    0    0  502    0  0.00000000000E+00  0.00000000000E+00  0.27846019165E+03  0.27846019165E+03  0.00000000000E+00 0.  1.
       -4   -1    0    0    0  501  0.00000000000E+00  0.00000000000E+00 -0.15509651736E+03  0.15509651736E+03  0.00000000000E+00 0. -1.
        6    2    1    2  502    0 -0.73791859835E+02 -0.89000811844E+02  0.60536381040E+02  0.21555285518E+03  0.17155756137E+03 0.  0.
       24    2    3    3    0    0 -0.11734511138E+02 -0.11303383354E+03  0.29566138958E+02  0.14200051631E+03  0.79847628542E+02 0.  0.
       -6    2    1    2    0  501  0.73791859835E+02  0.89000811844E+02  0.62827293255E+02  0.21800385383E+03  0.17381607641E+03 0.  0.
      -24    2    5    5    0    0  0.96030654634E+02  0.96572099548E+02  0.82639684844E+01  0.15841245510E+03  0.80486990978E+02 0.  0.
        5    1    3    3  502    0 -0.62057348697E+02  0.24033021694E+02  0.30970242082E+02  0.73552338873E+02  0.47000000000E+01 0. -1.
      -11    1    4    4    0    0 -0.23848199812E+02 -0.30717450630E+02  0.42714289531E+02  0.57765118693E+02  0.00000000000E+00 0.  1.
       12    1    4    4    0    0  0.12113688674E+02 -0.82316382908E+02 -0.13148150573E+02  0.84235397618E+02  0.00000000000E+00 0. -1.
       -5    1    5    5    0  501 -0.22238794799E+02 -0.75712877039E+01  0.54563324771E+02  0.59591398722E+02  0.47000000000E+01 0.  1.
        3    1    6    6  503    0  0.10442290493E+03  0.70088744639E+02  0.21584565906E+02  0.12760277695E+03  0.00000000000E+00 0. -1.
       -4    1    6    6    0  503 -0.83922503003E+01  0.26483354909E+02 -0.13320597421E+02  0.30809678155E+02  0.00000000000E+00 0.  1.
</event>
<event>
12   0  0.1544783E-01  0.1939725E+03  0.7957747E-01  0.1160996E+00
       21   -1    0    0  504  503  0.00000000000E+00  0.00000000000E+00  0.34224542939E+03  0.34224542939E+03  0.00000000000E+00 0. -1.
       21   -1    0    0  501  504  0.00000000000E+00  0.00000000000E+00 -0.35581194565E+03  0.35581194565E+03  0.00000000000E+00 0. -1.
        6    2    1    2  501    0 -0.74800259149E+02  0.45762911952E+02 -0.29829042375E+03  0.35353881493E+03  0.16829496094E+03 0.  0.
       24    2    3    3    0    0 -0.92580609116E+02  0.12911661791E+02 -0.27423257296E+03  0.30885978554E+03  0.10701860987E+03 0.  0.
       -6    2    1    2    0  503  0.74800259149E+02 -0.45762911952E+02  0.28472390749E+03  0.34451856012E+03  0.17302026439E+03 0.  0.
      -24    2    5    5    0    0  0.55641580932E+02 -0.62763290865E+02  0.29501309013E+03  0.31651811167E+03  0.78203423559E+02 0.  0.
        5    1    3    3  501    0  0.17780349967E+02  0.32851250161E+02 -0.24057850798E+02  0.44679029389E+02  0.47000000000E+01 0. -1.
      -13    1    4    4    0    0  0.10281851622E+02  0.33862695424E+00  0.46920432425E+01  0.11306918713E+02  0.00000000000E+00 0.  1.
       14    1    4    4    0    0 -0.10286246074E+03  0.12573034837E+02 -0.27892461620E+03  0.29755286682E+03  0.00000000000E+00 0. -1.
       -5    1    5    5    0  503  0.19158678217E+02  0.17000378913E+02 -0.10289182637E+02  0.28000448453E+02  0.47000000000E+01 0.  1.
        1    1    6    6  502    0  0.30161018163E+02 -0.36054193488E+02  0.49566714521E+02  0.68311427105E+02  0.00000000000E+00 0. -1.
       -2    1    6    6    0  502  0.25480562769E+02 -0.26709097377E+02  0.24544637561E+03  0.24820668456E+03  0.00000000000E+00 0.  1.
</event>
<event>
12   0  0.1544783E-01  0.1837062E+03  0.7957747E-01  0.1170009E+00
       21   -1    0    0  504  503  0.00000000000E+00  0.00000000000E+00  0.70529743183E+03  0.70529743183E+03  0.00000000000E+00 0.  1.
       21   -1    0    0  501  504  0.00000000000E+00  0.00000000000E+00 -0.47770791074E+02  0.47770791074E+02  0.00000000000E+00 0.  1.
        6    2    1    2  501    0  0.62804155340E+02  0.81632874259E+01  0.34934114537E+03  0.39428379823E+03  0.17149191383E+03 0.  0.
       24    2    3    3    0    0  0.39568657181E+02 -0.14183734478E+02  0.75539506405E+02  0.11855076564E+03  0.81124657480E+02 0.  0.
       -6    2    1    2    0  503 -0.62804155340E+02 -0.81632874259E+01  0.30818549539E+03  0.35878442468E+03  0.17244408552E+03 0.  0.
      -24    2    5    5    0    0 -0.82434927750E+01 -0.44154098154E+02  0.26448111457E+03  0.28001661870E+03  0.80259000896E+02 0.  0.
        5    1    3    3  501    0  0.23235498159E+02  0.22347021904E+02  0.27380163896E+03  0.27573303259E+03  0.47000000000E+01 0. -1.
        4    1    4    4  502    0  0.46753055949E+02 -0.38850935724E+02  0.69160940936E+02  0.92078657670E+02  0.00000000000E+00 0. -1.
       -3    1    4    4    0  502 -0.71843987683E+01  0.24667201246E+02  0.63785654698E+01  0.26472107971E+02  0.00000000000E+00 0.  1.
       -5    1    5    5    0  503 -0.54560662565E+02  0.35990810728E+02  0.43704380824E+02  0.78767805985E+02  0.47000000000E+01 0.  1.
       11    1    6    6    0    0  0.37104471921E+01 -0.26730689499E+02  0.17568841509E+02  0.32201884594E+02  0.00000000000E+00 0. -1.
      -12    1    6    6    0    0 -0.11953939967E+02 -0.17423408655E+02  0.24691227306E+03  0.24781473410E+03  0.00000000000E+00 0.  1.
</event>
<event>
12   0  0.1544783E-01  0.2253841E+03  0.7957747E-01  0.1136824E+00
       21   -1    0    0  501  503  0.00000000000E+00  0.00000000000E+00  0.37879784271E+03  0.37879784271E+03  0.00000000000E+00 0. -1.
       21   -1    0    0  503  504  0.00000000000E+00  0.00000000000E+00 -0.14791272822E+03  0.14791272822E+03  0.00000000000E+00 0. -1.
        6    2    1    2  501    0 -0.12211657362E+03 -0.44368167598E+02  0.20777222899E+03  0.30014451692E+03  0.17331024220E+03 0.  0.
       24    2    3    3    0    0 -0.15580511097E+03 -0.12638590044E+02  0.16716881639E+03  0.23839979444E+03  0.66738911056E+02 0.  0.
       -6    2    1    2    0  504  0.12211657362E+03  0.44368167598E+02  0.23112885498E+02  0.22656605401E+03  0.18416563063E+03 0.  0.
      -24    2    5    5    0    0  0.15425198121E+03  0.19764865119E+02 -0.78477915916E+01  0.17539320535E+03  0.80727102329E+02 0.  0.
        5    1    3    3  501    0  0.33688537351E+02 -0.31729577555E+02  0.40603412595E+02  0.61744722487E+02  0.47000000000E+01 0. -1.
        4    1    4    4  502    0 -0.28579437035E+02 -0.13835352198E+02  0.47892544840E+01  0.32111339900E+02  0.00000000000E+00 0. -1.
       -3    1    4    4    0  502 -0.12722567394E+03  0.11967621543E+01  0.16237956191E+03  0.20628845454E+03  0.00000000000E+00 0.  1.
       -5    1    5    5    0  504 -0.32135407589E+02  0.24603302479E+02  0.30960677090E+02  0.51172848657E+02  0.47000000000E+01 0.  1.
       13    1    6    6    0    0  0.75456485533E+01  0.23889219150E+02 -0.13619815236E+02  0.28515451438E+02  0.00000000000E+00 0. -1.
      -14    1    6    6    0    0  0.14670633266E+03 -0.41243540305E+01  0.57720236441E+01  0.14687775392E+03  0.00000000000E+00 0.  1.
</event>
<event>
12   0  0.1544783E-01  0.2042027E+03  0.7957747E-01  0.1152603E+00
       21   -1    0    0  501  503  0.00000000000E+00  0.00000000000E+00  0.37726513986E+03  0.37726513986E+03  0.00000000000E+00 0.  1.
       21   -1    0    0  503  504  0.00000000000E+00  0.00000000000E+00 -0.11008996921E+03  0.11008996921E+03  0.00000000000E+00 0.  1.
        6    2    1    2  501    0  0.78146650267E+02  0.74798612619E+02  0.13115023630E+03  0.24199513516E+03  0.17221942271E+03 0.  0.
       24    2    3    3    0    0  0.10750109282E+03  0.59106382756E+02  0.14500099241E+03  0.20563770372E+03  0.78813247300E+02 0.  0.
       -6    2    1    2    0  504 -0.78146650267E+02 -0.74798612619E+02  0.13602493434E+03  0.24535997391E+03  0.17319642789E+03 0.  0.
      -24    2    5    5    0    0 -0.56406590539E+01 -0.94760847014E+02  0.64686590101E+02  0.14159649804E+03  0.82787548328E+02 0.  0.
        5    1    3    3  501    0 -0.29354442556E+02  0.15692229864E+02 -0.13850756109E+02  0.36357431437E+02  0.47000000000E+01 0. -1.
        2    1    4    4  502    0  0.70143322478E+02  0.32105605397E+00  0.43501484569E+02  0.82538281573E+02  0.00000000000E+00 0. -1.
       -1    1    4    4    0  502  0.37357770345E+02  0.58785326702E+02  0.10149950784E+03  0.12309942215E+03  0.00000000000E+00 0.  1.
       -5    1    5    5    0  504 -0.72505991213E+02  0.19962234395E+02  0.71338344241E+02  0.10376347586E+03  0.47000000000E+01 0.  1.
       13    1    6    6    0    0 -0.14125714725E+02 -0.30181470504E+02  0.68682470886E+02  0.76339627882E+02  0.00000000000E+00 0. -1.
      -14    1    6    6    0    0  0.84850556709E+01 -0.64579376509E+02 -0.39958807845E+01  0.65256870162E+02  0.00000000000E+00 0.  1.
</event>
<event>
12   0  0.1544783E-01  0.1883990E+03  0.7957747E-01  0.1165811E+00
       21   -1    0    0  501  503  0.00000000000E+00  0.00000000000E+00  0.51165858464E+02  0.51165858464E+02  0.00000000000E+00 0. -1.
       21   -1    0    0  503  504  0.00000000000E+00  0.00000000000E+00 -0.71279060603E+03  0.71279060603E+03  0.00000000000E+00 0. -1.
        6    2    1    2  501    0  0.66753282721E+02 -0.25727381288E+02 -0.40049677933E+03  0.44195959722E+03  0.17266359321E+03 0.  0.
       24    2    3    3    0    0 -0.21151733396E+02 -0.43274070233E+02 -0.15853781449E+03  0.18388710970E+03  0.79750796286E+02 0.  0.
       -6    2    1    2    0  504 -0.66753282721E+02  0.25727381288E+02 -0.26112796824E+03  0.32199686727E+03  0.17428788781E+03 0.  0.
      -24    2    5    5    0    0  0.27866235995E+02  0.31961827454E+02 -0.15770108749E+03  0.18160124304E+03  0.79443646431E+02 0.  0.
        5    1    3    3  501    0  0.87905016118E+02  0.17546688945E+02 -0.24195896484E+03  0.25807248753E+03  0.47000000000E+01 0. -1.
      -13    1    4    4    0    0 -0.28512352984E+02  0.22065704232E+01 -0.13341823059E+02  0.31556734119E+02  0.00000000000E+00 0.  1.
       14    1    4    4    0    0  0.73606195876E+01 -0.45480640656E+02 -0.14519599143E+03  0.15233037558E+03  0.00000000000E+00 0. -1.
       -5    1    5    5    0  504 -0.94619518716E+02 -0.62344461662E+01 -0.10342688075E+03  0.14039562423E+03  0.47000000000E+01 0.  1.
        3    1    6    6  502    0 -0.13798680963E+02 -0.19467831342E+02 -0.41402563163E+02  0.47786737595E+02  0.00000000000E+00 0. -1.
       -4    1    6    6    0  502  0.41664916958E+02  0.51429658796E+02 -0.11629852432E+03  0.13381450545E+03  0.00000000000E+00 0.  1.
</event>
<event>
12   0  0.1544783E-01  0.1857994E+03  0.7957747E-01  0.1168119E+00
       21   -1    0    0  504  503  0.00000000000E+00  0.00000000000E+00  0.24966903177E+03  0.24966903177E+03  0.00000000000E+00 0.  1.
       21   -1    0    0  501  504  0.00000000000E+00  0.00000000000E+00 -0.13762773997E+03  0.13762773997E+03  0.00000000000E+00 0.  1.
        6    2    1    2  501    0 -0.24459448646E+02  0.62135163629E+02  0.66421897439E+02  0.19597887533E+03  0.17186275900E+03 0.  0.
       24    2    3    3    0    0  0.14012401045E+02  0.51945642377E+02 -0.23459385030E+02  0.97568283931E+02  0.77939272118E+02 0.  0.
       -6    2    1    2    0  503  0.24459448646E+02 -0.62135163629E+02  0.45619394361E+02  0.19131789641E+03  0.17338502000E+03 0.  0.
      -24    2    5    5    0    0  0.10849134984E+02 -0.46645096359E+02 -0.42427417255E+02  0.10076672934E+03  0.77848437770E+02 0.  0.
        5    1    3    3  501    0 -0.38471849691E+02  0.10189521252E+02  0.89881282469E+02  0.98410591403E+02  0.47000000000E+01 0. -1.
      -13    1    4    4    0    0  0.44084172177E+02  0.27462675785E+02  0.58322076232E+00  0.51941822689E+02  0.00000000000E+00 0.  1.
       14    1    4    4    0    0 -0.30071771132E+02  0.24482966592E+02 -0.24042605792E+02  0.45626461242E+02  0.00000000000E+00 0. -1.
       -5    1    5    5    0  503  0.13610313662E+02 -0.15490067270E+02  0.88046811616E+02  0.90551167070E+02  0.47000000000E+01 0.  1.
        3    1    6    6  502    0 -0.24430705101E+02 -0.99548267896E+00  0.62994609653E+01  0.25249426646E+02  0.00000000000E+00 0. -1.
       -4    1    6    6    0  502  0.35279840085E+02 -0.45649613680E+02 -0.48726878221E+02  0.75517302697E+02  0.00000000000E+00 0.  1.
</event>
<event>
12   0  0.1544783E-01  0.2548201E+03  0.7957747E-01  0.1117791E+00
        2   -1    0    0  502    0  0.00000000000E+00  0.00000000000E+00  0.83088017305E+03  0.83088017305E+03  0.00000000000E+00 0.  1.
       -2   -1    0    0    0  501  0.00000000000E+00  0.00000000000E+00 -0.78193732640E+02  0.78193732640E+02  0.00000000000E+00 0. -1.
        6    2    1    2  502    0 -0.24456873580E+02  0.18411715228E+03  0.36304512311E+03  0.44226277122E+03  0.17116463701E+03 0.  0.
       24    2    3    3    0    0 -0.16807355882E+02  0.14077826266E+03  0.36394261732E+03  0.39799461144E+03  0.76449169923E+02 0.  0.
       -6    2    1    2    0  501  0.24456873580E+02 -0.18411715228E+03  0.38964131730E+03  0.46681113447E+03  0.17774986551E+03 0.  0.
      -24    2    5    5    0    0  0.10663155252E+01 -0.13934758389E+03  0.14306077735E+03  0.21506625341E+03  0.79801135171E+02 0.  0.
        5    1    3    3  502    0 -0.76495176978E+01  0.43338889613E+02 -0.89749421708E+00  0.44268159774E+02  0.47000000000E+01 0. -1.
      -11    1    4    4    0    0  0.23711903930E+02  0.96854118805E+02  0.25378622934E+03  0.27267274326E+03  0.00000000000E+00 0.  1.
       12    1    4    4    0    0 -0.40519259813E+02  0.43924143859E+02  0.11015638798E+03  0.12532186818E+03  0.00000000000E+00 0. -1.
       -5    1    5    5    0  501  0.23390558055E+02 -0.44769568391E+02  0.24658053995E+03  0.25174488106E+03  0.47000000000E+01 0.  1.
        1    1    6    6  503    0  0.19295791933E+02 -0.10403261448E+02  0.51215217699E+02  0.55709549981E+02  0.00000000000E+00 0. -1.
       -2    1    6    6    0  503 -0.18229476408E+02 -0.12894432244E+03  0.91845559654E+02  0.15935670343E+03  0.00000000000E+00 0.  1.
</event>
<event>
12   0  0.1544783E-01  0.2332371E+03  0.7957747E-01  0.1131449E+00
       21   -1    0    0  501  503  0.00000000000E+00  0.00000000000E+00  0.95329257721E+03  0.95329257721E+03  0.00000000000E+00 0.  1.
       21   -1    0    0  503  504  0.00000000000E+00  0.00000000000E+00 -0.74458502714E+02  0.74458502714E+02  0.00000000000E+00 0.  1.
        6    2    1    2  501    0  0.15576901039E+03  0.51030430208E+01  0.68868775523E+03  0.72711097639E+03  0.17352095588E+03 0.  0.
       24    2    3    3    0    0  0.14021892592E+03  0.63246718764E+02  0.51830035580E+03  0.54634469623E+03  0.78713236861E+02 0.  0.
       -6    2    1    2    0  504 -0.15576901039E+03 -0.51030430208E+01  0.19014631927E+03  0.30064010354E+03  0.17302838923E+03 0.  0.
      -24    2    5    5    0    0 -0.29366335578E+02  0.34812893317E+02  0.12874754620E+03  0.15447985756E+03  0.72206485379E+02 0.  0.
        5    1    3    3  501    0  0.15550084465E+02 -0.58143675743E+02  0.17038739943E+03  0.18076628015E+03  0.47000000000E+01 0. -1.
        2    1    4    4  502    0  0.10461602117E+02  0.37023772535E+02  0.15414340859E+03  0.15887226084E+03  0.00000000000E+00 0. -1.
       -1    1    4    4    0  502  0.12975732380E+03  0.26222946229E+02  0.36415694721E+03  0.38747243540E+03  0.00000000000E+00 0.  1.
       -5    1    5    5    0  504 -0.12640267481E+03 -0.39915936338E+02  0.61398773065E+02  0.14616024599E+03  0.47000000000E+01 0.  1.
       13    1    6    6    0    0 -0.82536532099E+01 -0.12655951870E+02  0.85667237542E+02  0.86989490728E+02  0.00000000000E+00 0. -1.
      -14    1    6    6    0    0 -0.21112682368E+02  0.47468845187E+02  0.43080308660E+02  0.67490366827E+02  0.00000000000E+00 0.  1.
</event>
<event>
12   0  0.1544783E-01  0.1759369E+03  0.7957747E-01  0.1177271E+00
       21   -1    0    0  504  503  0.00000000000E+00  0.00000000000E+00  0.61300824198E+02  0.61300824198E+02  0.00000000000E+00 0. -1.
       21   -1    0    0  501  504  0.00000000000E+00  0.00000000000E+00 -0.87010474621E+03  0.87010474621E+03  0.00000000000E+00 0. -1.
        6    2    1    2  501    0  0.19860580106E+02 -0.14657214138E+02 -0.71115735591E+03  0.73259715442E+03  0.17419681174E+03 0.  0.
       24    2    3    3    0    0  0.32579515673E+02 -0.66860823901E+02 -0.33976967882E+03  0.35731341524E+03  0.81839155965E+02 0.  0.
       -6    2    1    2    0  503 -0.19860580106E+02  0.14657214138E+02 -0.97646566101E+02  0.19880841600E+03  0.17140786980E+03 0.  0.
      -24    2    5    5    0    0 -0.43521514734E+02 -0.32923865150E+02 -0.69530847880E+01  0.93588662687E+02  0.75712543573E+02 0.  0.
        5    1    3    3  501    0 -0.12718935567E+02  0.52203609763E+02 -0.37138767709E+03  0.37528373918E+03  0.47000000000E+01 0. -1.
        2    1    4    4  502    0  0.40668256061E+02 -0.17120933943E+02 -0.69059133441E+02  0.81952409005E+02  0.00000000000E+00 0. -1.
       -1    1    4    4    0  502 -0.80887403875E+01 -0.49739889958E+02 -0.27071054538E+03  0.27536100623E+03  0.00000000000E+00 0.  1.
       -5    1    5    5    0  503  0.23660934627E+02  0.47581079288E+02 -0.90693481313E+02  0.10521975331E+03  0.47000000000E+01 0.  1.
       13    1    6    6    0    0 -0.98704003187E+01 -0.52568920385E+02 -0.10333609366E+02  0.54476597503E+02  0.00000000000E+00 0. -1.
      -14    1    6    6    0    0 -0.33651114415E+02  0.19645055235E+02  0.33805245782E+01  0.39112065184E+02  0.00000000000E+00 0.  1.
</event>
<event>
12   0  0.1544783E-01  0.1889770E+03  0.7957747E-01  0.1165303E+00
       21   -1    0    0  501  503  0.00000000000E+00  0.00000000000E+00  0.15655366424E+03  0.15655366424E+03  0.00000000000E+00 0. -1.
       21   -1    0    0  503  504  0.00000000000E+00  0.00000000000E+00 -0.24192583643E+03  0.24192583643E+03  0.00000000000E+00 0. -1.
        6    2    1    2  501    0  0.85477720124E+01 -0.74429988820E+02  0.60663363547E+01  0.18854304934E+03  0.17291267558E+03 0.  0.
       24    2    3    3    0    0 -0.28829718882E+02 -0.21742790152E+02 -0.51358326549E+02  0.10198266788E+03  0.80367189989E+02 0.  0.
       -6    2    1    2    0  504 -0.85477720124E+01  0.74429988820E+02 -0.91438508539E+02  0.20993645133E+03  0.17349185892E+03 0.  0.
      -24    2    5    5    0    0  0.15736885424E+02  0.11103323207E+02 -0.10981439715E+03  0.13951078522E+03  0.83863722924E+02 0.  0.
        5    1    3    3  501    0  0.37377490895E+02 -0.52687198669E+02  0.57424662904E+02  0.86560381462E+02  0.47000000000E+01 0. -1.
      -11    1    4    4    0    0 -0.10898740519E+02 -0.51464485690E+02 -0.24180202219E+02  0.57896960296E+02  0.00000000000E+00 0.  1.
       12    1    4    4    0    0 -0.17930978363E+02  0.29721695538E+02 -0.27178124330E+02  0.44085707580E+02  0.00000000000E+00 0. -1.
       -5    1    5    5    0  504 -0.24284657436E+02  0.63326665613E+02  0.18375888610E+02  0.70425666107E+02  0.47000000000E+01 0.  1.
        1    1    6    6  502    0 -0.23743186287E+02  0.18968408361E+02 -0.89299651087E+02  0.94329036331E+02  0.00000000000E+00 0. -1.
       -2    1    6    6    0  502  0.39480071711E+02 -0.78650851542E+01 -0.20514746062E+02  0.45181748890E+02  0.00000000000E+00 0.  1.
</event>
<event>
12   0  0.1544783E-01  0.1764313E+03  0.7957747E-01  0.1176797E+00
       21   -1    0    0  501  503  0.00000000000E+00  0.00000000000E+00  0.63318065422E+03  0.63318065422E+03  0.00000000000E+00 0.  1.
       21   -1    0    0  503  504  0.00000000000E+00  0.00000000000E+00 -0.54774451255E+02  0.54774451255E+02  0.00000000000E+00 0.  1.
        6    2    1    2  501    0  0.18522951319E+02 -0.34878628427E+02  0.41205052948E+03  0.44823391318E+03  0.17195459759E+03 0.  0.
       24    2    3    3    0    0 -0.36898505554E+02  0.22190890091E+01  0.33269337543E+03  0.34446770279E+03  0.81281560871E+02 0.  0.
       -6    2    1    2    0  504 -0.18522951319E+02  0.34878628427E+02  0.16635567349E+03  0.23972119230E+03  0.16802506209E+03 0.  0.
      -24    2    5    5    0    0  0.66254066366E+01  0.58312334083E+02  0.17690481966E+03  0.20345891226E+03  0.81584247515E+02 0.  0.
        5    1    3    3  501    0  0.55421456873E+02 -0.37097717436E+02  0.79357154043E+02  0.10376621039E+03  0.47000000000E+01 0. -1.
        4    1    4    4  502    0 -0.29569362098E+02  0.33613418894E+02  0.27280050760E+03  0.27644950000E+03  0.00000000000E+00 0. -1.
       -3    1    4    4    0  502 -0.73291434559E+01 -0.31394329885E+02  0.59892867834E+02  0.68018202785E+02  0.00000000000E+00 0.  1.
       -5    1    5    5    0  504 -0.25148357956E+02 -0.23433705656E+02 -0.10549146165E+02  0.36262280037E+02  0.47000000000E+01 0.  1.
       13    1    6    6    0    0  0.28061582550E+02  0.33409102383E+01  0.16913573051E+02  0.32934526712E+02  0.00000000000E+00 0. -1.
      -14    1    6    6    0    0 -0.21436175913E+02  0.54971423845E+02  0.15999124660E+03  0.17052438555E+03  0.00000000000E+00 0.  1.
</event>
<event>
12   0  0.1544783E-01  0.2018427E+03  0.7957747E-01  0.1154491E+00
       21   -1    0    0  501  503  0.00000000000E+00  0.00000000000E+00  0.28871731811E+03  0.28871731811E+03  0.00000000000E+00 0. -1.
       21   -1    0    0  503  504  0.00000000000E+00  0.00000000000E+00 -0.16419838931E+03  0.16419838931E+03  0.00000000000E+00 0. -1.
        6    2    1    2  501    0 -0.75070826550E+01 -0.94072335834E+02  0.15340378019E+03  0.25352158162E+03  0.17842228535E+03 0.  0.
       24    2    3    3    0    0  0.31746981925E+02 -0.11758088791E+03  0.81643499942E+02  0.16828566532E+03  0.82590968062E+02 0.  0.
       -6    2    1    2    0  504  0.75070826550E+01  0.94072335834E+02 -0.28884851395E+02  0.19939412580E+03  0.17325623252E+03 0.  0.
      -24    2    5    5    0    0  0.53551582632E+02  0.96013877519E+02  0.13153036718E+02  0.13683903329E+03  0.80408220838E+02 0.  0.
        5    1    3    3  501    0 -0.39254064580E+02  0.23508552074E+02  0.71760280246E+02  0.85235916301E+02  0.47000000000E+01 0. -1.
      -11    1    4    4    0    0  0.43327302410E+02 -0.87750077329E+02  0.21557731446E+02  0.10021011421E+03  0.00000000000E+00 0.  1.
       12    1    4    4    0    0 -0.11580320485E+02 -0.29830810580E+02  0.60085768496E+02  0.68075551104E+02  0.00000000000E+00 0. -1.
       -5    1    5    5    0  504 -0.46044499977E+02 -0.19415416842E+01 -0.42037888113E+02  0.62555092513E+02  0.47000000000E+01 0.  1.
        1    1    6    6  502    0  0.47339053319E+02  0.38637993664E+02 -0.26721050061E+02  0.66692541112E+02  0.00000000000E+00 0. -1.
       -2    1    6    6    0  502  0.62125293133E+01  0.57375883854E+02  0.39874086779E+02  0.70146492179E+02  0.00000000000E+00 0.  1.
</event>
<event>
12   0  0.1544783E-01  0.2231055E+03  0.7957747E-01  0.1138429E+00
       21   -1    0    0  504  503  0.00000000000E+00  0.00000000000E+00  0.10911274291E+04  0.10911274291E+04  0.00000000000E+00 0. -1.
       21   -1    0    0  501  504  0.00000000000E+00  0.00000000000E+00 -0.69423916722E+02  0.69423916722E+02  0.00000000000E+00 0. -1.
        6    2    1    2  501    0 -0.14073720772E+03  0.10450759508E+01  0.85140810487E+03  0.87987965064E+03  0.17171017664E+03 0.  0.
       24    2    3    3    0    0 -0.74816712349E+02  0.49714529181E+02  0.31931849955E+03  0.34149719785E+03  0.81160071014E+02 0.  0.
       -6    2    1    2    0  503  0.14073720772E+03 -0.10450759508E+01  0.17029540754E+03  0.28067169521E+03  0.17311274026E+03 0.  0.
      -24    2    5    5    0    0  0.58921687468E+02 -0.43191246893E+02  0.15230038811E+03  0.18677819275E+03  0.79708443770E+02 0.  0.
        5    1    3    3  501    0 -0.65920495370E+02 -0.48669453231E+02  0.53208960531E+03  0.53838245279E+03  0.47000000000E+01 0. -1.
        4    1    4    4  502    0 -0.73401766925E+02  0.27132143562E+02  0.30463005699E+03  0.31452097581E+03  0.00000000000E+00 0. -1.
       -3    1    4    4    0  502 -0.14149454242E+01  0.22582385620E+02  0.14688442559E+02  0.26976222042E+02  0.00000000000E+00 0.  1.
       -5    1    5    5    0  503  0.81815520251E+02  0.42146170942E+02  0.17995019433E+02  0.93893502456E+02  0.47000000000E+01 0.  1.
       11    1    6    6    0    0  0.58885501522E+02  0.19281979890E+01  0.60274733930E+02  0.84286794857E+02  0.00000000000E+00 0. -1.
      -12    1    6    6    0    0  0.36185946042E-01 -0.45119444882E+02  0.92025654175E+02  0.10249139789E+03  0.00000000000E+00 0.  1.
</event>
<event>
12   0  0.1544783E-01  0.1830154E+03  0.7957747E-01  0.1170638E+00
       21   -1    0    0  501  503  0.00000000000E+00  0.00000000000E+00  0.16072932025E+03  0.16072932025E+03  0.00000000000E+00 0.  1.
       21   -1    0    0  503  504  0.00000000000E+00  0.00000000000E+00 -0.21484303468E+03  0.21484303468E+03  0.00000000000E+00 0.  1.
        6    2    1    2  501    0  0.16286040114E+02 -0.57687054953E+02  0.83190384736E+01  0.18320440553E+03  0.17292083851E+03 0.  0.
       24    2    3    3    0    0  0.47993902648E+02 -0.10220883285E+02  0.55252389956E+02  0.10915539824E+03  0.80337993641E+02 0.  0.
       -6    2    1    2    0  504 -0.16286040114E+02  0.57687054953E+02 -0.62432752904E+02  0.19236794940E+03  0.17179798576E+03 0.  0.
      -24    2    5    5    0    0 -0.21513622145E+02  0.36483218115E+02  0.30666210967E+02  0.96626436024E+02  0.81255095236E+02 0.  0.
        5    1    3    3  501    0 -0.31707862535E+02 -0.47466171669E+02 -0.46933351482E+02  0.74049007291E+02  0.47000000000E+01 0. -1.
      -11    1    4    4    0    0 -0.20426362104E+02 -0.15307885564E+02  0.15411045816E+02  0.29817242703E+02  0.00000000000E+00 0.  1.
       12    1    4    4    0    0  0.68420264752E+02  0.50870022797E+01  0.39841344139E+02  0.79338155536E+02  0.00000000000E+00 0. -1.
       -5    1    5    5    0  504  0.52275820318E+01  0.21203836838E+02 -0.93098963871E+02  0.95741513380E+02  0.47000000000E+01 0.  1.
        3    1    6    6  502    0  0.28629904011E+02  0.29010843643E+02  0.16638250230E+02  0.44024218599E+02  0.00000000000E+00 0. -1.
       -4    1    6    6    0  502 -0.50143526156E+02  0.74723744715E+01  0.14027960737E+02  0.52602217425E+02  0.00000000000E+00 0.  1.
</event>
<event>
12   0  0.1544783E-01  0.2062242E+03  0.7957747E-01  0.1151009E+00
        2   -1    0    0  502    0  0.00000000000E+00  0.00000000000E+00  0.92704883209E+03  0.92704883209E+03  0.00000000000E+00 0. -1.
       -2   -1    0    0    0  501  0.00000000000E+00  0.00000000000E+00 -0.48792053551E+02  0.48792053551E+02  0.00000000000E+00 0.  1.
        6    2    1    2  502    0  0.10926447910E+03  0.26697889658E+02  0.31972136694E+03  0.38043167230E+03  0.17278599801E+03 0.  0.
       24    2    3    3    0    0 -0.57569272473E+01  0.35724549788E+02  0.12934008143E+03  0.15776930821E+03  0.82782318639E+02 0.  0.
       -6    2    1    2    0  501 -0.10926447910E+03 -0.26697889658E+02  0.55853541160E+03  0.59540921334E+03  0.17291275723E+03 0.  0.
      -24    2    5    5    0    0 -0.28297974148E+02 -0.53058999376E+02  0.16638009985E+03  0.19408844193E+03  0.79824513213E+02 0.  0.
        5    1    3    3  502    0  0.11502140635E+03 -0.90266601299E+01  0.19038128551E+03  0.22266236409E+03  0.47000000000E+01 0. -1.
      -11    1    4    4    0    0  0.16632166731E+02 -0.13339940899E+02  0.45178378918E+01  0.21794353685E+02  0.00000000000E+00 0.  1.
       12    1    4    4    0    0 -0.22389093978E+02  0.49064490686E+02  0.12482224354E+03  0.13597495452E+03  0.00000000000E+00 0. -1.
       -5    1    5    5    0  501 -0.80966504952E+02  0.26361109718E+02  0.39215531175E+03  0.40132077141E+03  0.47000000000E+01 0.  1.
        3    1    6    6  503    0 -0.54585998908E+02 -0.35197316159E+02  0.86904702032E+02  0.10849382276E+03  0.00000000000E+00 0. -1.
       -4    1    6    6    0  503  0.26288024759E+02 -0.17861683217E+02  0.79475397815E+02  0.85594619170E+02  0.00000000000E+00 0.  1.
</event>
<event>
12   0  0.1544783E-01  0.1885619E+03  0.7957747E-01  0.1165667E+00
       21   -1    0    0  504  503  0.00000000000E+00  0.00000000000E+00  0.40338205083E+03  0.40338205083E+03  0.00000000000E+00 0. -1.
       21   -1    0    0  501  504  0.00000000000E+00  0.00000000000E+00 -0.20190020273E+03  0.20190020273E+03  0.00000000000E+00 0. -1.
        6    2    1    2  501    0 -0.66895037003E+02 -0.35745574633E+02 -0.12652945469E+03  0.22693454269E+03  0.17244387980E+03 0.  0.
       24    2    3    3    0    0 -0.45457933913E+02 -0.87608110205E+02 -0.10918342116E+03  0.16800876850E+03  0.81020504232E+02 0.  0.
       -6    2    1    2    0  503  0.66895037003E+02  0.35745574633E+02  0.32801130279E+03  0.37834771087E+03  0.17263511659E+03 0.  0.
      -24    2    5    5    0    0  0.10921153847E+03  0.44357054471E+01  0.23091825865E+03  0.26780295330E+03  0.80301581581E+02 0.  0.
        5    1    3    3  501    0 -0.21437103090E+02  0.51862535572E+02 -0.17346033530E+02  0.58925774192E+02  0.47000000000E+01 0. -1.
        2    1    4    4  502    0 -0.20820704302E+02 -0.93180513289E+02 -0.10581860648E+03  0.14252609327E+03  0.00000000000E+00 0. -1.
       -1    1    4    4    0  502 -0.24637229611E+02  0.55724030842E+01 -0.33648146802E+01  0.25482675229E+02  0.00000000000E+00 0.  1.
       -5    1    5    5    0  503 -0.42316501463E+02  0.31309869186E+02  0.97093044145E+02  0.11054475757E+03  0.47000000000E+01 0.  1.
       11    1    6    6    0    0  0.86261591047E+02  0.32529539926E+02  0.19966213905E+03  0.21991862774E+03  0.00000000000E+00 0. -1.
      -12    1    6    6    0    0  0.22949947419E+02 -0.28093834479E+02  0.31256119600E+02  0.47884325564E+02  0.00000000000E+00 0.  1.
</event>
<event>
12   0  0.1544783E-01  0.1897890E+03  0.7957747E-01  0.1164593E+00
       21   -1    0    0  501  503  0.00000000000E+00  0.00000000000E+00  0.44257017642E+02  0.44257017642E+02  0.00000000000E+00 0.  1.
       21   -1    0    0  503  504  0.00000000000E+00  0.00000000000E+00 -0.94889677435E+03  0.94889677435E+03  0.00000000000E+00 0.  1.
        6    2    1    2  501    0 -0.58550186300E+02  0.50971654048E+02 -0.64032025650E+03  0.66775456542E+03  0.17280015890E+03 0.  0.
       24    2    3    3    0    0  0.73666951447E+00  0.25585785940E+02 -0.54595451720E+03  0.55335895219E+03  0.86513698294E+02 0.  0.
       -6    2    1    2    0  504  0.58550186300E+02 -0.50971654048E+02 -0.26431950021E+03  0.32539922658E+03  0.17318667568E+03 0.  0.
      -24    2    5    5    0    0 -0.16830461034E+02  0.10420361489E+02 -0.72788309614E+02  0.11055624081E+03  0.80825095191E+02 0.  0.
        5    1    3    3  501    0 -0.59286855815E+02  0.25385868107E+02 -0.94365739304E+02  0.11439561323E+03  0.47000000000E+01 0. -1.
      -11    1    4    4    0    0 -0.38367829671E+02  0.31732431107E+02 -0.26600153775E+03  0.27062124016E+03  0.00000000000E+00 0.  1.
       12    1    4    4    0    0  0.39104499186E+02 -0.61466451664E+01 -0.27995297945E+03  0.28273771203E+03  0.00000000000E+00 0. -1.
       -5    1    5    5    0  504  0.75380647335E+02 -0.61392015537E+02 -0.19153119059E+03  0.21484298577E+03  0.47000000000E+01 0.  1.
        1    1    6    6  502    0  0.58765850724E+01  0.20024992938E+02  0.10736039247E+02  0.23469067578E+02  0.00000000000E+00 0. -1.
       -2    1    6    6    0  502 -0.22707046107E+02 -0.96046314485E+01 -0.83524348861E+02  0.87087173228E+02  0.00000000000E+00 0.  1.
</event>
<event>
12   0  0.1544783E-01  0.1963818E+03  0.7957747E-01  0.1158969E+00
        1   -1    0    0  502    0  0.00000000000E+00  0.00000000000E+00  0.84586124590E+03  0.84586124590E+03  0.00000000000E+00 0. -1.
       -1   -1    0    0    0  501  0.00000000000E+00  0.00000000000E+00 -0.49330759090E+02  0.49330759090E+02  0.00000000000E+00 0.  1.
        6    2    1    2  502    0 -0.91647011140E+02  0.21190609209E+02  0.27453126646E+03  0.33737313204E+03  0.17206102810E+03 0.  0.
       24    2    3    3    0    0  0.63260291196E+01  0.37747409983E+02  0.73944514062E+02  0.11347587992E+03  0.77097980256E+02 0.  0.
       -6    2    1    2    0  501  0.91647011140E+02 -0.21190609209E+02  0.52199922035E+03  0.55781887295E+03  0.17271506130E+03 0.  0.
      -24    2    5    5    0    0  0.13180926357E+01 -0.15930230451E+02  0.37363193163E+03  0.38397432324E+03  0.87062913790E+02 0.  0.
        5    1    3    3  502    0 -0.97973040260E+02 -0.16556800774E+02  0.20058675239E+03  0.22389725212E+03  0.47000000000E+01 0. -1.
      -11    1    4    4    0    0  0.73696290511E+01 -0.20615629073E+02  0.40921197351E+02  0.46409697123E+02  0.00000000000E+00 0.  1.
       12    1    4    4    0    0 -0.10435999315E+01  0.58363039056E+02  0.33023316712E+02  0.67066182799E+02  0.00000000000E+00 0. -1.
       -5    1    5    5    0  501  0.90328918505E+02 -0.52603787582E+01  0.14836728872E+03  0.17384454971E+03  0.47000000000E+01 0.  1.
        3    1    6    6  503    0  0.27963035689E+02  0.18639691442E+02  0.75199796690E+02  0.82367341126E+02  0.00000000000E+00 0. -1.
       -4    1    6    6    0  503 -0.26644943054E+02 -0.34569921893E+02  0.29843213494E+03  0.30160698211E+03  0.00000000000E+00 0.  1.
</event>
<event>
12   0  0.1544783E-01  0.3161676E+03  0.7957747E-01  0.1085844E+00
       -2   -1    0    0    0  501  0.00000000000E+00  0.00000000000E+00  0.33431737149E+03  0.33431737149E+03  0.00000000000E+00 0.  1.
        2   -1    0    0  502    0  0.00000000000E+00  0.00000000000E+00 -0.29918636687E+03  0.29918636687E+03  0.00000000000E+00 0. -1.
        6    2    1    2  502    0 -0.45176224944E+02  0.26001900956E+03  0.97227530306E+01  0.31553647893E+03  0.17267877974E+03 0.  0.
       24    2    3    3    0    0 -0.78886870854E+02  0.17257764765E+03  0.50937166688E+02  0.21305176147E+03  0.82403126457E+02 0.  0.
       -6    2    1    2    0  501  0.45176224944E+02 -0.26001900956E+03  0.25408251587E+02  0.31796725943E+03  0.17551872318E+03 0.  0.
      -24    2    5    5    0    0 -0.69895175361E+01 -0.13456980893E+03  0.77071108476E+02  0.17253718204E+03  0.75307613117E+02 0.  0.
        5    1    3    3  502    0  0.33710645911E+02  0.87441361910E+02 -0.41214413657E+02  0.10248471746E+03  0.47000000000E+01 0. -1.
        4    1    4    4  503    0 -0.72405290687E+02  0.14487847779E+03  0.72406622976E+02  0.17741200212E+03  0.00000000000E+00 0. -1.
       -3    1    4    4    0  503 -0.64815801673E+01  0.27699169864E+02 -0.21469456289E+02  0.35639759342E+02  0.00000000000E+00 0.  1.
       -5    1    5    5    0  501  0.52165742480E+02 -0.12544920064E+03 -0.51662856890E+02  0.14543007739E+03  0.47000000000E+01 0.  1.
       13    1    6    6    0    0 -0.38185796595E+02 -0.49245104044E+02  0.42029398482E+02  0.75164524017E+02  0.00000000000E+00 0. -1.
      -14    1    6    6    0    0  0.31196279059E+02 -0.85324704885E+02  0.35041709994E+02  0.97372658021E+02  0.00000000000E+00 0.  1.
</event>
<event>
12   0  0.1544783E-01  0.1730058E+03  0.7957747E-01  0.1180120E+00
       -1   -1    0    0    0  501  0.00000000000E+00  0.00000000000E+00  0.90136020942E+02  0.90136020942E+02  0.00000000000E+00 0.  1.
        1   -1    0    0  502    0  0.00000000000E+00  0.00000000000E+00 -0.40455658967E+03  0.40455658967E+03  0.00000000000E+00 0. -1.
        6    2    1    2  502    0  0.38588723780E+01  0.34258723345E+01 -0.26131381250E+03  0.31295650328E+03  0.17213435696E+03 0.  0.
       24    2    3    3    0    0  0.49673667216E+01 -0.58891212393E+02 -0.10621249895E+03  0.14573462890E+03  0.80402969455E+02 0.  0.
       -6    2    1    2    0  501 -0.38588723780E+01 -0.34258723345E+01 -0.53106756229E+02  0.18173610733E+03  0.17372696294E+03 0.  0.
      -24    2    5    5    0    0  0.62036134949E+02 -0.88271063260E+01 -0.54071439147E+02  0.11544624436E+03  0.80484252873E+02 0.  0.
        5    1    3    3  502    0 -0.11084943436E+01  0.62317084727E+02 -0.15510131354E+03  0.16722187438E+03  0.47000000000E+01 0. -1.
        4    1    4    4  503    0 -0.24572653031E+02 -0.57540200867E+02 -0.42916366791E+02  0.75871631928E+02  0.00000000000E+00 0. -1.
       -3    1    4    4    0  503  0.29540019752E+02 -0.13510115254E+01 -0.63296132164E+02  0.69862996972E+02  0.00000000000E+00 0.  1.
       -5    1    5    5    0  501 -0.65895007327E+02  0.54012339915E+01  0.96468291825E+00  0.66289862968E+02  0.47000000000E+01 0.  1.
       11    1    6    6    0    0  0.24397081738E+02 -0.32028676782E+01 -0.69993567109E+02  0.74192825767E+02  0.00000000000E+00 0. -1.
      -12    1    6    6    0    0  0.37639053211E+02 -0.56242386478E+01  0.15922127962E+02  0.41253418595E+02  0.00000000000E+00 0.  1.
</event>
<event>
12   0  0.1544783E-01  0.2118977E+03  0.7957747E-01  0.1146638E+00
       21   -1    0    0  504  503  0.00000000000E+00  0.00000000000E+00  0.18996617872E+03  0.18996617872E+03  0.00000000000E+00 0. -1.
       21   -1    0    0  501  504  0.00000000000E+00  0.00000000000E+00 -0.26394845004E+03  0.26394845004E+03  0.00000000000E+00 0.  1.
        6    2    1    2  501    0  0.10262773677E+03  0.66597198621E+02  0.40598755610E+02  0.21302163955E+03  0.16959457756E+03 0.  0.
       24    2    3    3    0    0  0.17829474864E+02 -0.57776069368E+01 -0.17876788044E+02  0.87044114139E+02  0.83101307689E+02 0.  0.
       -6    2    1    2    0  503 -0.10262773677E+03 -0.66597198621E+02 -0.11458102693E+03  0.24089298921E+03  0.17301150626E+03 0.  0.
      -24    2    5    5    0    0  0.95450299664E+01  0.59861496957E+01 -0.46752593386E+02  0.90980153045E+02  0.77231092667E+02 0.  0.
        5    1    3    3  501    0  0.84798261907E+02  0.72374805558E+02  0.58475543654E+02  0.12597752541E+03  0.47000000000E+01 0. -1.
        2    1    4    4  502    0 -0.22857259106E+01  0.28268973425E+02  0.18048741592E+02  0.33617205037E+02  0.00000000000E+00 0. -1.
       -1    1    4    4    0  502  0.20115200775E+02 -0.34046580362E+02 -0.35925529636E+02  0.53426909102E+02  0.00000000000E+00 0.  1.
       -5    1    5    5    0  503 -0.11217276674E+03 -0.72583348317E+02 -0.67828433543E+02  0.14991283617E+03  0.47000000000E+01 0.  1.
       13    1    6    6    0    0  0.30333989398E+02 -0.95007899981E+01  0.58646498873E+01  0.32323521493E+02  0.00000000000E+00 0. -1.
      -14    1    6    6    0    0 -0.20788959432E+02  0.15486939694E+02 -0.52617243273E+02  0.58656631552E+02  0.00000000000E+00 0.  1.
</event>
<event>
12   0  0.1544783E-01  0.2020152E+03  0.7957747E-01  0.1154352E+00
       21   -1    0    0  501  503  0.00000000000E+00  0.00000000000E+00  0.87033128414E+02  0.87033128414E+02  0.00000000000E+00 0. -1.
       21   -1    0    0  503  504  0.00000000000E+00  0.00000000000E+00 -0.60166027508E+03  0.60166027508E+03  0.00000000000E+00 0. -1.
        6    2    1    2  501    0  0.80366454535E+02  0.65100832883E+02 -0.41953933141E+03  0.46541817041E+03  0.17292754926E+03 0.  0.
       24    2    3    3    0    0  0.21391485392E+02  0.60184124910E+01 -0.34390382493E+03  0.35267244222E+03  0.74927923809E+02 0.  0.
       -6    2    1    2    0  504 -0.80366454535E+02 -0.65100832883E+02 -0.95087815254E+02  0.22327523308E+03  0.17353170212E+03 0.  0.
      -24    2    5    5    0    0  0.16533806759E+02 -0.64394231675E+02 -0.56894689330E+02  0.11901131414E+03  0.80664139375E+02 0.  0.
        5    1    3    3  501    0  0.58974969143E+02  0.59082420392E+02 -0.75635506482E+02  0.11274572819E+03  0.47000000000E+01 0. -1.
      -11    1    4    4    0    0 -0.10985913840E+02  0.32635360805E+02 -0.19338563906E+03  0.19642749928E+03  0.00000000000E+00 0.  1.
       12    1    4    4    0    0  0.32377399232E+02 -0.26616948314E+02 -0.15051818586E+03  0.15624494294E+03  0.00000000000E+00 0. -1.
       -5    1    5    5    0  504 -0.96900261294E+02 -0.70660120787E+00 -0.38193125924E+02  0.10426391894E+03  0.47000000000E+01 0.  1.
        3    1    6    6  502    0  0.26755858005E+02 -0.83912757038E+01  0.11252679452E+02  0.30214437615E+02  0.00000000000E+00 0. -1.
       -4    1    6    6    0  502 -0.10222051247E+02 -0.56002955971E+02 -0.68147368782E+02  0.88796876528E+02  0.00000000000E+00 0.  1.
</event>
<event>
12   0  0.1544783E-01  0.1998744E+03  0.7957747E-01  0.1156087E+00
       -1   -1    0    0    0  501  0.00000000000E+00  0.00000000000E+00  0.12511424093E+03  0.12511424093E+03  0.00000000000E+00 0. -1.
        1   -1    0    0  502    0  0.00000000000E+00  0.00000000000E+00 -0.84144332007E+03  0.84144332007E+03  0.00000000000E+00 0.  1.
        6    2    1    2  502    0  0.92479084147E+02 -0.20749480089E+02  0.20172424645E+02  0.20428946925E+03  0.17984531854E+03 0.  0.
       24    2    3    3    0    0  0.20833082767E+02 -0.67740614383E+02  0.28566383738E+02  0.11806960631E+03  0.90008807791E+02 0.  0.
       -6    2    1    2    0  501 -0.92479084147E+02  0.20749480089E+02 -0.73650150378E+03  0.76226809175E+03  0.17214893754E+03 0.  0.
      -24    2    5    5    0    0 -0.54238779792E+02 -0.34271942620E+02 -0.61490458346E+03  0.62335236598E+03  0.79649947447E+02 0.  0.
        5    1    3    3  502    0  0.71646001380E+02  0.46991134294E+02 -0.83939590935E+01  0.86219862940E+02  0.47000000000E+01 0. -1.
        2    1    4    4  503    0 -0.16183895261E+02 -0.37291334773E+02  0.50940919647E+02  0.65173149452E+02  0.00000000000E+00 0. -1.
       -1    1    4    4    0  503  0.37016978028E+02 -0.30449279609E+02 -0.22374535909E+02  0.52896456859E+02  0.00000000000E+00 0.  1.
       -5    1    5    5    0  501 -0.38240304355E+02  0.55021422709E+02 -0.12159692033E+03  0.13891572577E+03  0.47000000000E+01 0.  1.
       13    1    6    6    0    0  0.14577153452E+02 -0.15012768339E+02 -0.53976891726E+02  0.57891117250E+02  0.00000000000E+00 0. -1.
      -14    1    6    6    0    0 -0.68815933243E+02 -0.19259174281E+02 -0.56092769173E+03  0.56546124873E+03  0.00000000000E+00 0.  1.
</event>
<event>
12   0  0.1544783E-01  0.2542480E+03  0.7957747E-01  0.1118134E+00
        3   -1    0    0  502    0  0.00000000000E+00  0.00000000000E+00  0.12773059150E+03  0.12773059150E+03  0.00000000000E+00 0.  1.
       -3   -1    0    0    0  501  0.00000000000E+00  0.00000000000E+00 -0.70812683444E+03  0.70812683444E+03  0.00000000000E+00 0. -1.
        6    2    1    2  502    0  0.18560168007E+03  0.23079770510E+02 -0.51317958488E+03  0.57256862333E+03  0.17175820981E+03 0.  0.
       24    2    3    3    0    0  0.80857192339E+02  0.81682469817E+02 -0.29265519312E+03  0.32145354724E+03  0.66898501850E+02 0.  0.
       -6    2    1    2    0  501 -0.18560168007E+03 -0.23079770510E+02 -0.67216658062E+02  0.26328880261E+03  0.17269121288E+03 0.  0.
      -24    2    5    5    0    0 -0.17998225724E+03  0.32369942608E+02 -0.51668851859E+02  0.20523647384E+03  0.77530083428E+02 0.  0.
        5    1    3    3  502    0  0.10474448773E+03 -0.58602699307E+02 -0.22052439176E+03  0.25111507609E+03  0.47000000000E+01 0. -1.
        2    1    4    4  503    0  0.28896820777E+01  0.45868188756E+02 -0.12367975812E+03  0.13194287995E+03  0.00000000000E+00 0. -1.
       -1    1    4    4    0  503  0.77967510262E+02  0.35814281061E+02 -0.16897543500E+03  0.18951066729E+03  0.00000000000E+00 0.  1.
       -5    1    5    5    0  501 -0.56194228299E+01 -0.55449713118E+02 -0.15547806203E+02  0.58052328769E+02  0.47000000000E+01 0.  1.
       11    1    6    6    0    0 -0.69167800557E+02  0.51311035531E+02 -0.19483574911E+02  0.88298452379E+02  0.00000000000E+00 0. -1.
      -12    1    6    6    0    0 -0.11081445668E+03 -0.18941092924E+02 -0.32185276948E+02  0.11693802146E+03  0.00000000000E+00 0.  1.
</event>
<event>
12   0  0.1544783E-01  0.2001684E+03  0.7957747E-01  0.1155847E+00
       21   -1    0    0  504  503  0.00000000000E+00  0.00000000000E+00  0.14535346002E+03  0.14535346002E+03  0.00000000000E+00 0. -1.
       21   -1    0    0  501  504  0.00000000000E+00  0.00000000000E+00 -0.29377654345E+03  0.29377654345E+03  0.00000000000E+00 0. -1.
        6    2    1    2  501    0 -0.86239098070E+02 -0.49830518917E+02 -0.19277260059E+02  0.20109453595E+03  0.17362930911E+03 0.  0.
       24    2    3    3    0    0 -0.34047432519E+02 -0.18995027867E+01 -0.72040313051E+02  0.11262204293E+03  0.79568097103E+02 0.  0.
       -6    2    1    2    0  503  0.86239098070E+02  0.49830518917E+02 -0.12914582338E+03  0.23803546752E+03  0.17338390194E+03 0.  0.
      -24    2    5    5    0    0  0.26681662115E+02  0.40231609347E+01 -0.13818373245E+03  0.16221214642E+03  0.80560161466E+02 0.  0.
        5    1    3    3  501    0 -0.52191665551E+02 -0.47931016131E+02  0.52763052992E+02  0.88472493021E+02  0.47000000000E+01 0. -1.
        2    1    4    4  502    0 -0.18694335983E+02 -0.21359103263E+02 -0.81338134074E+02  0.86148601525E+02  0.00000000000E+00 0. -1.
       -1    1    4    4    0  502 -0.15353096536E+02  0.19459600476E+02  0.92978210226E+01  0.26473441403E+02  0.00000000000E+00 0.  1.
       -5    1    5    5    0  503  0.59557435955E+02  0.45807357983E+02  0.90379090691E+01  0.75823321104E+02  0.47000000000E+01 0.  1.
       13    1    6    6    0    0  0.16509492781E+02  0.39842614205E+02 -0.47374103884E+02  0.64064834171E+02  0.00000000000E+00 0. -1.
      -14    1    6    6    0    0  0.10172169334E+02 -0.35819453270E+02 -0.90809628563E+02  0.98147312247E+02  0.00000000000E+00 0.  1.
</event>
<event>
12   0  0.1544783E-01  0.1944768E+03  0.7957747E-01  0.1160569E+00
       21   -1    0    0  504  503  0.00000000000E+00  0.00000000000E+00  0.15523337830E+04  0.15523337830E+04  0.00000000000E+00 0.  1.
       21   -1    0    0  501  504  0.00000000000E+00  0.00000000000E+00 -0.29566592150E+02  0.29566592150E+02  0.00000000000E+00 0. -1.
        6    2    1    2  501    0 -0.37230455346E+02  0.77595987921E+02  0.41946333967E+03  0.46158764228E+03  0.17235548737E+03 0.  0.
       24    2    3    3    0    0  0.11842889291E+02  0.50071010940E+02  0.10507536807E+03  0.14216988416E+03  0.80771794729E+02 0.  0.
       -6    2    1    2    0  503  0.37230455346E+02 -0.77595987921E+02  0.11033038512E+04  0.11203127329E+04  0.17439606438E+03 0.  0.
      -24    2    5    5    0    0  0.13549278437E+02  0.22034225863E+02  0.63483073216E+03  0.64075446647E+03  0.82988780847E+02 0.  0.
        5    1    3    3  501    0 -0.49073344638E+02  0.27524976981E+02  0.31438797160E+03  0.31941775811E+03  0.47000000000E+01 0. -1.
        4    1    4    4  502    0  0.28853670969E+02  0.15306672263E+02  0.27596736043E+01  0.32778717830E+02  0.00000000000E+00 0. -1.
       -3    1    4    4    0  502 -0.17010781678E+02  0.34764338677E+02  0.10231569447E+03  0.10939116633E+03  0.00000000000E+00 0.  1.
       -5    1    5    5    0  503  0.23681176910E+02 -0.99630213784E+02  0.46847311899E+03  0.47955826638E+03  0.47000000000E+01 0.  1.
       13    1    6    6    0    0  0.46439317742E+01 -0.21868958363E+02  0.57576827195E+02  0.61764945334E+02  0.00000000000E+00 0. -1.
      -14    1    6    6    0    0  0.89053466624E+01  0.43903184226E+02  0.57725390497E+03  0.57898952114E+03  0.00000000000E+00 0.  1.
</event>
<event>
12   0  0.1544783E-01  0.2073954E+03  0.7957747E-01  0.1150094E+00
       -1   -1    0    0    0  501  0.00000000000E+00  0.00000000000E+00  0.37775515168E+03  0.37775515168E+03  0.00000000000E+00 0. -1.
        1   -1    0    0  502    0  0.00000000000E+00  0.00000000000E+00 -0.11414490616E+03  0.11414490616E+03  0.00000000000E+00 0.  1.
        6    2    1    2  502    0 -0.35878346121E+02  0.10861259816E+03  0.12025652615E+03  0.24055138032E+03  0.17412461714E+03 0.  0.
       24    2    3    3    0    0 -0.10008045417E+02 -0.13591352894E+02  0.38330123697E+02  0.91095354918E+02  0.80896720938E+02 0.  0.
       -6    2    1    2    0  501  0.35878346121E+02 -0.10861259816E+03  0.14335371937E+03  0.25134867751E+03  0.17187762108E+03 0.  0.
      -24    2    5    5    0    0 -0.21221632618E+02 -0.11913103103E+03  0.12253053227E+03  0.18948802666E+03  0.79053277390E+02 0.  0.
        5    1    3    3  502    0 -0.25870300704E+02  0.12220395105E+03  0.81926402450E+02  0.14945602541E+03  0.47000000000E+01 0. -1.
        4    1    4    4  503    0 -0.30448584857E+02 -0.70356942513E+01  0.55442275883E+02  0.63643249984E+02  0.00000000000E+00 0. -1.
       -3    1    4    4    0  503  0.20440539440E+02 -0.65556586428E+01 -0.17112152187E+02  0.27452104934E+02  0.00000000000E+00 0.  1.
       -5    1    5    5    0  501  0.57099978739E+02  0.10518432867E+02  0.20823187107E+02  0.61860650847E+02  0.47000000000E+01 0.  1.
       11    1    6    6    0    0  0.39929705096E+01 -0.96309628201E+02  0.12198762608E+03  0.15547497939E+03  0.00000000000E+00 0. -1.
      -12    1    6    6    0    0 -0.25214603128E+02 -0.22821402826E+02  0.54290618308E+00  0.34013047275E+02  0.00000000000E+00 0.  1.
</event>
<event>
12   0  0.1544783E-01  0.2471134E+03  0.7957747E-01  0.1122493E+00
       21   -1    0    0  501  503  0.00000000000E+00  0.00000000000E+00  0.81555225052E+02  0.81555225052E+02  0.00000000000E+00 0.  1.
       21   -1    0    0  503  504  0.00000000000E+00  0.00000000000E+00 -0.72304863290E+03  0.72304863290E+03  0.00000000000E+00 0. -1.
        6    2    1    2  501    0  0.13467819207E+03  0.85582326090E+02 -0.35991767136E+03  0.42997082224E+03  0.17283410503E+03 0.  0.
       24    2    3    3    0    0  0.15163493012E+03  0.30403491526E+02 -0.24063904219E+03  0.29737475848E+03  0.81283909992E+02 0.  0.
       -6    2    1    2    0  504 -0.13467819207E+03 -0.85582326090E+02 -0.28157573649E+03  0.37463303571E+03  0.18868615771E+03 0.  0.
      -24    2    5    5    0    0 -0.12817434225E+03 -0.12772581236E+03 -0.26127836193E+03  0.32717308511E+03  0.77674320437E+02 0.  0.
        5    1    3    3  501    0 -0.16956738050E+02  0.55178834564E+02 -0.11927862917E+03  0.13259606376E+03  0.47000000000E+01 0. -1.
      -11    1    4    4    0    0  0.11745369792E+03  0.50464141586E+02 -0.21511831156E+03  0.25023566634E+03  0.00000000000E+00 0.  1.
       12    1    4    4    0    0  0.34181232199E+02 -0.20060650060E+02 -0.25520730633E+02  0.47139092137E+02  0.00000000000E+00 0. -1.
       -5    1    5    5    0  504 -0.65038498216E+01  0.42143486266E+02 -0.20297374558E+02  0.47459950602E+02  0.47000000000E+01 0.  1.
        1    1    6    6  502    0 -0.81998855360E+01 -0.38465477731E+02 -0.98877250152E+02  0.10641213135E+03  0.00000000000E+00 0. -1.
       -2    1    6    6    0  502 -0.11997445671E+03 -0.89260334626E+02 -0.16240111178E+03  0.22076095377E+03  0.00000000000E+00 0.  1.
</event>
<event>
12   0  0.1544783E-01  0.1973192E+03  0.7957747E-01  0.1158189E+00
       21   -1    0    0  501  503  0.00000000000E+00  0.00000000000E+00  0.32515974676E+03  0.32515974676E+03  0.00000000000E+00 0. -1.
       21   -1    0    0  503  504  0.00000000000E+00  0.00000000000E+00 -0.11165887746E+03  0.11165887746E+03  0.00000000000E+00 0.  1.
        6    2    1    2  501    0  0.20449534655E+02 -0.91919210425E+02  0.10033969221E+03  0.22136604614E+03  0.17339996493E+03 0.  0.
       24    2    3    3    0    0  0.60164262698E+02 -0.20385975348E+02  0.15375387490E+02  0.10331823201E+03  0.80018298083E+02 0.  0.
       -6    2    1    2    0  504 -0.20449534655E+02  0.91919210425E+02  0.11316117709E+03  0.21545257808E+03  0.15731190891E+03 0.  0.
      -24    2    5    5    0    0 -0.38515126907E+02  0.17104661732E+02  0.10750615756E+03  0.13813730426E+03  0.75817916494E+02 0.  0.
        5    1    3    3  501    0 -0.39714728042E+02 -0.71533235076E+02  0.84964304722E+02  0.11804781413E+03  0.47000000000E+01 0. -1.
        4    1    4    4  502    0  0.54587202500E+02 -0.42558727348E+02  0.30777030967E+02  0.75751129268E+02  0.00000000000E+00 0. -1.
       -3    1    4    4    0  502  0.55770601973E+01  0.22172752000E+02 -0.15401643477E+02  0.27567102740E+02  0.00000000000E+00 0.  1.
       -5    1    5    5    0  504  0.18065592251E+02  0.74814548692E+02  0.56550195333E+01  0.77315273817E+02  0.47000000000E+01 0.  1.
       13    1    6    6    0    0 -0.23531467641E+02  0.46674842200E+02  0.53704279199E+02  0.74942781293E+02  0.00000000000E+00 0. -1.
      -14    1    6    6    0    0 -0.14983659265E+02 -0.29570180468E+02  0.53801878361E+02  0.63194522967E+02  0.00000000000E+00 0.  1.
</event>
<event>
12   0  0.1544783E-01  0.1745923E+03  0.7957747E-01  0.1178570E+00
       21   -1    0    0  501  503  0.00000000000E+00  0.00000000000E+00  0.72991043338E+03  0.72991043338E+03  0.00000000000E+00 0.  1.
       21   -1    0    0  503  504  0.00000000000E+00  0.00000000000E+00 -0.67302825809E+02  0.67302825809E+02  0.00000000000E+00 0.  1.
        6    2    1    2  501    0  0.16079839127E+02 -0.26835975910E+00  0.57779496113E+03  0.60311107214E+03  0.17215491568E+03 0.  0.
       24    2    3    3    0    0 -0.42838642645E+02  0.16647507481E+02  0.24228413828E+03  0.26201411188E+03  0.88529669315E+02 0.  0.
       -6    2    1    2    0  504 -0.16079839127E+02  0.26835975910E+00  0.84812646445E+02  0.19410218705E+03  0.17385005256E+03 0.  0.
      -24    2    5    5    0    0 -0.29326422627E+02 -0.39950639440E+02  0.10931770263E+03  0.14495315197E+03  0.81270926546E+02 0.  0.
        5    1    3    3  501    0  0.58918481771E+02 -0.16915867240E+02  0.33551082284E+03  0.34109696027E+03  0.47000000000E+01 0. -1.
        4    1    4    4  502    0 -0.25505427802E+02  0.46583603190E+02  0.79585146576E+02  0.95678390920E+02  0.00000000000E+00 0. -1.
       -3    1    4    4    0  502 -0.17333214842E+02 -0.29936095709E+02  0.16269899171E+03  0.16633572096E+03  0.00000000000E+00 0.  1.
       -5    1    5    5    0  504  0.13246583500E+02  0.40218999199E+02 -0.24505056181E+02  0.49149035082E+02  0.47000000000E+01 0.  1.
       13    1    6    6    0    0  0.13635553832E+02 -0.43529910391E+02  0.82241081383E+02  0.94044547391E+02  0.00000000000E+00 0. -1.
      -14    1    6    6    0    0 -0.42961976459E+02  0.35792709506E+01  0.27076621244E+02  0.50908604575E+02  0.00000000000E+00 0.  1.
</event>
<event>
12   0  0.1544783E-01  0.2320821E+03  0.7957747E-01  0.1132225E+00
       21   -1    0    0  504  503  0.00000000000E+00  0.00000000000E+00  0.58206909664E+02  0.58206909664E+02  0.00000000000E+00 0. -1.
       21   -1    0    0  501  504  0.00000000000E+00  0.00000000000E+00 -0.11775452379E+04  0.11775452379E+04  0.00000000000E+00 0.  1.
        6    2    1    2  501    0  0.89898037124E+02  0.12451778510E+03 -0.88017174743E+03  0.91025512999E+03  0.17399931271E+03 0.  0.
       24    2    3    3    0    0  0.17772495077E+02  0.89291274586E+02 -0.72767293333E+03  0.73785739462E+03  0.81466825175E+02 0.  0.
       -6    2    1    2    0  503 -0.89898037124E+02 -0.12451778510E+03 -0.23916658085E+03  0.32549701761E+03  0.15862319879E+03 0.  0.
      -24    2    5    5    0    0 -0.55970875679E+02 -0.13186384873E+03 -0.11954795640E+03  0.20085464019E+03  0.74364366995E+02 0.  0.
        5    1    3    3  501    0  0.72125542048E+02  0.35226510509E+02 -0.15249881410E+03  0.17239773537E+03  0.47000000000E+01 0. -1.
        4    1    4    4  502    0  0.46133316268E+02  0.73949136027E+02 -0.45393904343E+03  0.46223090846E+03  0.00000000000E+00 0. -1.
       -3    1    4    4    0  502 -0.28360821191E+02  0.15342138559E+02 -0.27373388990E+03  0.27562648616E+03  0.00000000000E+00 0.  1.
       -5    1    5    5    0  503 -0.33927161445E+02  0.73460636374E+01 -0.11961862445E+03  0.12464237742E+03  0.47000000000E+01 0.  1.
       13    1    6    6    0    0  0.16248850219E+02 -0.47010217121E+02 -0.31931632896E+02  0.59106808631E+02  0.00000000000E+00 0. -1.
      -14    1    6    6    0    0 -0.72219725898E+02 -0.84853631612E+02 -0.87616323502E+02  0.14174783156E+03  0.00000000000E+00 0.  1.
</event>
<event>
12   0  0.1544783E-01  0.1930368E+03  0.7957747E-01  0.1161792E+00
       21   -1    0    0  504  503  0.00000000000E+00  0.00000000000E+00  0.13675531171E+03  0.13675531171E+03  0.00000000000E+00 0.  1.
       21   -1    0    0  501  504  0.00000000000E+00  0.00000000000E+00 -0.28369474182E+03  0.28369474182E+03  0.00000000000E+00 0.  1.
        6    2    1    2  501    0  0.24358813927E+02 -0.77098602792E+02 -0.12060830405E+03  0.22761711264E+03  0.17528730870E+03 0.  0.
       24    2    3    3    0    0 -0.24674217014E+02 -0.22083778849E+02 -0.12641351288E+03  0.15354512450E+03  0.80617732209E+02 0.  0.
       -6    2    1    2    0  503 -0.24358813927E+02  0.77098602792E+02 -0.26331126058E+02  0.19283294089E+03  0.17307128163E+03 0.  0.
      -24    2    5    5    0    0 -0.78850757274E+02  0.31441328746E+02 -0.28590595939E+00  0.11697516572E+03  0.80480485694E+02 0.  0.
        5    1    3    3  501    0  0.49033030940E+02 -0.55014823943E+02  0.58052088316E+01  0.74071988135E+02  0.47000000000E+01 0. -1.
        2    1    4    4  502    0 -0.49002520582E+02  0.33017173082E+01 -0.53674457259E+02  0.72753664668E+02  0.00000000000E+00 0. -1.
       -1    1    4    4    0  502  0.24328303568E+02 -0.25385496157E+02 -0.72739055621E+02  0.80791459835E+02  0.00000000000E+00 0.  1.
       -5    1    5    5    0  503  0.54491943348E+02  0.45657274046E+02 -0.26045220098E+02  0.75857775166E+02  0.47000000000E+01 0.  1.
       13    1    6    6    0    0 -0.54910650329E+02  0.49385767754E+02 -0.25208485733E+02  0.78035897696E+02  0.00000000000E+00 0. -1.
      -14    1    6    6    0    0 -0.23940106945E+02 -0.17944439008E+02  0.24922579774E+02  0.38939268027E+02  0.00000000000E+00 0.  1.
</event>
<event>
12   0  0.1544783E-01  0.2212067E+03  0.7957747E-01  0.1139782E+00
       21   -1    0    0  504  503  0.00000000000E+00  0.00000000000E+00  0.89406579940E+02  0.89406579940E+02  0.00000000000E+00 0.  1.
       21   -1    0    0  501  504  0.00000000000E+00  0.00000000000E+00 -0.62841452575E+03  0.62841452575E+03  0.00000000000E+00 0. -1.
        6    2    1    2  501    0 -0.10937067627E+03 -0.83453166729E+02 -0.39930495561E+03  0.45619287293E+03  0.17245612160E+03 0.  0.
       24    2    3    3    0    0  0.11100104889E+02 -0.10903150557E+02 -0.17502734266E+03  0.19143024032E+03  0.75953111911E+02 0.  0.
       -6    2    1    2    0  503  0.10937067627E+03  0.83453166729E+02 -0.13970299020E+03  0.26162823276E+03  0.17322248942E+03 0.  0.
      -24    2    5    5    0    0  0.56044987425E+02  0.99940571791E+02 -0.36320810216E+02  0.14404664936E+03  0.79379326216E+02 0.  0.
        5    1    3    3  501    0 -0.12047078116E+03 -0.72550016171E+02 -0.22427761295E+03  0.26476263261E+03  0.47000000000E+01 0. -1.
      -13    1    4    4    0    0 -0.73641484863E+01  0.30739870241E+02 -0.81010353271E+02  0.86958884782E+02  0.00000000000E+00 0.  1.
       14    1    4    4    0    0  0.18464253375E+02 -0.41643020798E+02 -0.94016989393E+02  0.10447135554E+03  0.00000000000E+00 0. -1.
       -5    1    5    5    0  503  0.53325688846E+02 -0.16487405062E+02 -0.10338217999E+03  0.11758158340E+03  0.47000000000E+01 0.  1.
        1    1    6    6  502    0  0.67856416956E+02  0.46916116360E+02 -0.35251089818E+02  0.89712065130E+02  0.00000000000E+00 0. -1.
       -2    1    6    6    0  502 -0.11811429531E+02  0.53024455431E+02 -0.10697203974E+01  0.54334584226E+02  0.00000000000E+00 0.  1.
</event>
<event>
12   0  0.1544783E-01  0.2209955E+03  0.7957747E-01  0.1139934E+00
       21   -1    0    0  501  503  0.00000000000E+00  0.00000000000E+00  0.23947168992E+03  0.23947168992E+03  0.00000000000E+00 0.  1.
       21   -1    0    0  503  504  0.00000000000E+00  0.00000000000E+00 -0.28625442684E+03  0.28625442684E+03  0.00000000000E+00 0.  1.
        6    2    1    2  501    0 -0.13003240347E+03  0.41827436589E+02  0.12193322432E+03  0.25240187945E+03  0.17372690393E+03 0.  0.
       24    2    3    3    0    0 -0.15388462428E+03  0.12472462595E+01  0.94116017794E+02  0.19752413110E+03  0.80473128128E+02 0.  0.
       -6    2    1    2    0  504  0.13003240347E+03 -0.41827436589E+02 -0.16871596124E+03  0.27332423731E+03  0.16608161463E+03 0.  0.
      -24    2    5    5    0    0  0.54660326679E+02 -0.82865258419E+02 -0.11489365450E+03  0.17191426007E+03  0.80619840027E+02 0.  0.
        5    1    3    3  501    0  0.23852220802E+02  0.40580190329E+02  0.27817206527E+02  0.54877748344E+02  0.47000000000E+01 0. -1.
        4    1    4    4  502    0 -0.27326494597E+02 -0.30194774834E+02  0.87243958563E+01  0.41648251071E+02  0.00000000000E+00 0. -1.
       -3    1    4    4    0  502 -0.12655812968E+03  0.31442021094E+02  0.85391621938E+02  0.15587588003E+03  0.00000000000E+00 0.  1.
       -5    1    5    5    0  504  0.75372076794E+02  0.41037821830E+02 -0.53822306740E+02  0.10140997724E+03  0.47000000000E+01 0.  1.
       13    1    6    6    0    0 -0.14671037650E+02 -0.61030056681E+00 -0.34876883261E+02  0.37841892111E+02  0.00000000000E+00 0. -1.
      -14    1    6    6    0    0  0.69331364330E+02 -0.82254957852E+02 -0.80016771236E+02  0.13407236796E+03  0.00000000000E+00 0.  1.
</event>
<event>
12   0  0.1544783E-01  0.1762702E+03  0.7957747E-01  0.1176952E+00
       21   -1    0    0  501  503  0.00000000000E+00  0.00000000000E+00  0.31396037196E+03  0.31396037196E+03  0.00000000000E+00 0. -1.
       21   -1    0    0  503  504  0.00000000000E+00  0.00000000000E+00 -0.17931866397E+03  0.17931866397E+03  0.00000000000E+00 0. -1.
        6    2    1    2  501    0  0.35246436703E+01  0.38067795365E+02  0.23250905063E+03  0.29166260331E+03  0.17188669346E+03 0.  0.
       24    2    3    3    0    0  0.33637980444E+02 -0.18301679360E+02  0.61815356285E+02  0.10933663692E+03  0.81651066765E+02 0.  0.
       -6    2    1    2    0  504 -0.35246436703E+01 -0.38067795365E+02 -0.97867342644E+02  0.20161643262E+03  0.17207437052E+03 0.  0.
      -24    2    5    5    0    0  0.32274177907E+02 -0.45887525351E+01  0.63761648250E+01  0.86328962423E+02  0.79682840472E+02 0.  0.
        5    1    3    3  501    0 -0.30113336774E+02  0.56369474725E+02  0.17069369435E+03  0.18232596640E+03  0.47000000000E+01 0. -1.
        4    1    4    4  502    0  0.60250920480E+02 -0.13006784582E+02  0.33645727368E+02  0.70223819563E+02  0.00000000000E+00 0. -1.
       -3    1    4    4    0  502 -0.26612940036E+02 -0.52948947780E+01  0.28169628917E+02  0.39112817354E+02  0.00000000000E+00 0.  1.
       -5    1    5    5    0  504 -0.35798821578E+02 -0.33479042830E+02 -0.10424350747E+03  0.11528747020E+03  0.47000000000E+01 0.  1.
       11    1    6    6    0    0 -0.37779490173E+00 -0.95147276125E+01 -0.33342970826E+02  0.34676021600E+02  0.00000000000E+00 0. -1.
      -12    1    6    6    0    0  0.32651972809E+02  0.49259750774E+01  0.39719135651E+02  0.51652940823E+02  0.00000000000E+00 0.  1.
</event>
<event>
12   0  0.1544783E-01  0.1836282E+03  0.7957747E-01  0.1170080E+00
       21   -1    0    0  504  503  0.00000000000E+00  0.00000000000E+00  0.79567191178E+03  0.79567191178E+03  0.00000000000E+00 0.  1.
       21   -1    0    0  501  504  0.00000000000E+00  0.00000000000E+00 -0.42604697707E+02  0.42604697707E+02  0.00000000000E+00 0.  1.
        6    2    1    2  501    0  0.18950659656E+02  0.50588418074E+02  0.32808744779E+03  0.37597962738E+03  0.17550211183E+03 0.  0.
       24    2    3    3    0    0  0.23462825794E+02  0.23843498329E+02  0.61102961738E+02  0.10757982080E+03  0.81980664205E+02 0.  0.
       -6    2    1    2    0  503 -0.18950659656E+02 -0.50588418074E+02  0.42497976628E+03  0.46229698211E+03  0.17375955334E+03 0.  0.
      -24    2    5    5    0    0  0.23953109836E+02 -0.91680873934E+02  0.31500319434E+03  0.33721197205E+03  0.74200859401E+02 0.  0.
        5    1    3    3  501    0 -0.45121661389E+01  0.26744919745E+02  0.26698448606E+03  0.26839980658E+03  0.47000000000E+01 0. -1.
      -11    1    4    4    0    0  0.20970524509E+02 -0.16258028847E+02  0.61948357142E+02  0.67392027368E+02  0.00000000000E+00 0.  1.
       12    1    4    4    0    0  0.24923012852E+01  0.40101527176E+02 -0.84539540444E+00  0.40187793432E+02  0.00000000000E+00 0. -1.
       -5    1    5    5    0  503 -0.42903769491E+02  0.41092455860E+02  0.10997657194E+03  0.12508501005E+03  0.47000000000E+01 0.  1.
        1    1    6    6  502    0  0.45395285583E+02 -0.34457089350E+02  0.11976406805E+03  0.13263278236E+03  0.00000000000E+00 0. -1.
       -2    1    6    6    0  502 -0.21442175747E+02 -0.57223784584E+02  0.19523912629E+03  0.20457918970E+03  0.00000000000E+00 0.  1.
</event>
<event>
12   0  0.1544783E-01  0.1819437E+03  0.7957747E-01  0.1171621E+00
       21   -1    0    0  504  503  0.00000000000E+00  0.00000000000E+00  0.44973112943E+03  0.44973112943E+03  0.00000000000E+00 0.  1.
       21   -1    0    0  501  504  0.00000000000E+00  0.00000000000E+00 -0.87053501867E+02  0.87053501867E+02  0.00000000000E+00 0.  1.
        6    2    1    2  501    0 -0.36380454841E+02  0.12952856660E+02  0.65234326803E+02  0.18810711490E+03  0.17215532316E+03 0.  0.
       24    2    3    3    0    0 -0.82494664646E+02 -0.65355071965E+01  0.12202687904E+02  0.11502660179E+03  0.78956513213E+02 0.  0.
       -6    2    1    2    0  503  0.36380454841E+02 -0.12952856660E+02  0.29744330076E+03  0.34867751640E+03  0.17779814196E+03 0.  0.
      -24    2    5    5    0    0  0.45862325274E+02 -0.69107705944E+02  0.15339442587E+03  0.19370835391E+03  0.84343633937E+02 0.  0.
        5    1    3    3  501    0  0.46114209805E+02  0.19488363856E+02  0.53031638899E+02  0.73080513108E+02  0.47000000000E+01 0. -1.
      -13    1    4    4    0    0 -0.28832740697E+02 -0.14384316672E+02  0.42165172092E+02  0.53067289735E+02  0.00000000000E+00 0.  1.
       14    1    4    4    0    0 -0.53661923950E+02  0.78488094750E+01 -0.29962484188E+02  0.61959312060E+02  0.00000000000E+00 0. -1.
       -5    1    5    5    0  503 -0.94818704326E+01  0.56154849284E+02  0.14404887489E+03  0.15496916248E+03  0.47000000000E+01 0.  1.
        1    1    6    6  502    0  0.13184711712E+02 -0.52591315984E+02  0.24107564859E+02  0.59336816761E+02  0.00000000000E+00 0. -1.
       -2    1    6    6    0  502  0.32677613561E+02 -0.16516389960E+02  0.12928686102E+03  0.13437153715E+03  0.00000000000E+00 0.  1.
</event>
<event>
12   0  0.1544783E-01  0.2246422E+03  0.7957747E-01  0.1137344E+00
       21   -1    0    0  504  503  0.00000000000E+00  0.00000000000E+00  0.12649544461E+03  0.12649544461E+03  0.00000000000E+00 0.  1.
       21   -1    0    0  501  504  0.00000000000E+00  0.00000000000E+00 -0.46281820308E+03  0.46281820308E+03  0.00000000000E+00 0. -1.
        6    2    1    2  501    0 -0.11143936824E+03 -0.86606702918E+02 -0.57109197813E+02  0.23178778930E+03  0.17477032074E+03 0.  0.
       24    2    3    3    0    0 -0.19995131821E+02 -0.43613387272E+02  0.28026195084E+02  0.99573574150E+02  0.82628664591E+02 0.  0.
       -6    2    1    2    0  503  0.11143936824E+03  0.86606702918E+02 -0.27921356066E+03  0.35752585840E+03  0.17304644805E+03 0.  0.
      -24    2    5    5    0    0  0.56761518239E+02  0.57690812761E+02 -0.27161025989E+03  0.29503028922E+03  0.81979500186E+02 0.  0.
        5    1    3    3  501    0 -0.91444236414E+02 -0.42993315646E+02 -0.85135392898E+02  0.13221421515E+03  0.47000000000E+01 0. -1.
      -13    1    4    4    0    0 -0.26318592738E+02 -0.33560101840E+02 -0.22117177092E+02  0.48042879616E+02  0.00000000000E+00 0.  1.
       14    1    4    4    0    0  0.63234609163E+01 -0.10053285432E+02  0.50143372177E+02  0.51530694534E+02  0.00000000000E+00 0. -1.
       -5    1    5    5    0  503  0.54677849996E+02  0.28915890157E+02 -0.76033007663E+01  0.62495569173E+02  0.47000000000E+01 0.  1.
        3    1    6    6  502    0 -0.52423541207E+01  0.52732956099E+02 -0.12372056320E+03  0.13459206773E+03  0.00000000000E+00 0. -1.
       -4    1    6    6    0  502  0.62003872360E+02  0.49578566628E+01 -0.14788969669E+03  0.16043822150E+03  0.00000000000E+00 0.  1.
</event>
<event>
12   0  0.1544783E-01  0.1896269E+03  0.7957747E-01  0.1164734E+00
       21   -1    0    0  504  503  0.00000000000E+00  0.00000000000E+00  0.41933284288E+03  0.41933284288E+03  0.00000000000E+00 0. -1.
       21   -1    0    0  501  504  0.00000000000E+00  0.00000000000E+00 -0.85353025636E+02  0.85353025636E+02  0.00000000000E+00 0. -1.
        6    2    1    2  501    0 -0.73383612151E+02  0.25655256964E+02  0.16253751371E+03  0.24975345967E+03  0.17295953433E+03 0.  0.
       24    2    3    3    0    0 -0.40330850057E+02  0.57203852244E+02  0.31769487677E+02  0.11115271805E+03  0.80291769221E+02 0.  0.
       -6    2    1    2    0  503  0.73383612151E+02 -0.25655256964E+02  0.17144230354E+03  0.25493240885E+03  0.17191487107E+03 0.  0.
      -24    2    5    5    0    0  0.24248789476E+01 -0.68858806880E+02  0.82138505750E+02  0.13287116667E+03  0.78489473699E+02 0.  0.
        5    1    3    3  501    0 -0.33052762094E+02 -0.31548595280E+02  0.13076802603E+03  0.13860074163E+03  0.47000000000E+01 0. -1.
      -13    1    4    4    0    0 -0.19491378293E+02 -0.17420266871E+02 -0.28390236475E+01  0.26295238749E+02  0.00000000000E+00 0.  1.
       14    1    4    4    0    0 -0.20839471764E+02  0.74624119115E+02  0.34608511324E+02  0.84857479300E+02  0.00000000000E+00 0. -1.
       -5    1    5    5    0  503  0.70958733203E+02  0.43203549916E+02  0.89303797788E+02  0.12206124218E+03  0.47000000000E+01 0.  1.
        3    1    6    6  502    0 -0.32855791780E+02 -0.31538342903E+02  0.63696433471E+02  0.78303293440E+02  0.00000000000E+00 0. -1.
       -4    1    6    6    0  502  0.35280670728E+02 -0.37320463976E+02  0.18442072278E+02  0.54567873226E+02  0.00000000000E+00 0.  1.
</event>
<event>
12   0  0.1544783E-01  0.1857529E+03  0.7957747E-01  0.1168161E+00
       21   -1    0    0  501  503  0.00000000000E+00  0.00000000000E+00  0.31556832735E+03  0.31556832735E+03  0.00000000000E+00 0.  1.
       21   -1    0    0  503  504  0.00000000000E+00  0.00000000000E+00 -0.10735265766E+03  0.10735265766E+03  0.00000000000E+00 0.  1.
        6    2    1    2  501    0  0.34449140671E+02 -0.17959441832E+02  0.60100146790E+02  0.18534498919E+03  0.17097208114E+03 0.  0.
       24    2    3    3    0    0 -0.38697255039E+02  0.10045248830E+02  0.42619960486E+01  0.89040020560E+02  0.79445428310E+02 0.  0.
       -6    2    1    2    0  504 -0.34449140671E+02  0.17959441832E+02  0.14811552290E+03  0.23757599583E+03  0.18164487558E+03 0.  0.
      -24    2    5    5    0    0 -0.33918312044E+02  0.81177370542E+02  0.84372962042E+02  0.14767609397E+03  0.83361949509E+02 0.  0.
        5    1    3    3  501    0  0.73146395710E+02 -0.28004690662E+02  0.55838150741E+02  0.96304968629E+02  0.47000000000E+01 0. -1.
        2    1    4    4  502    0 -0.52880067298E+02 -0.18021602572E+02  0.10850219601E+02  0.56910516972E+02  0.00000000000E+00 0. -1.
       -1    1    4    4    0  502  0.14182812258E+02  0.28066851402E+02 -0.65882235525E+01  0.32129503587E+02  0.00000000000E+00 0.  1.
       -5    1    5    5    0  504 -0.53082862684E+00 -0.63217928710E+02  0.63742560856E+02  0.89899901857E+02  0.47000000000E+01 0.  1.
       11    1    6    6    0    0  0.24374739768E+01  0.11318338366E+01 -0.14859844371E+02  0.15100904011E+02  0.00000000000E+00 0. -1.
      -12    1    6    6    0    0 -0.36355786021E+02  0.80045536706E+02  0.99232806413E+02  0.13257518996E+03  0.00000000000E+00 0.  1.
</event>
<event>
12   0  0.1544783E-01  0.2301415E+03  0.7957747E-01  0.1133540E+00
       21   -1    0    0  504  503  0.00000000000E+00  0.00000000000E+00  0.84900673528E+02  0.84900673528E+02  0.00000000000E+00 0.  1.
       21   -1    0    0  501  504  0.00000000000E+00  0.00000000000E+00 -0.94749505694E+03  0.94749505694E+03  0.00000000000E+00 0.  1.
        6    2    1    2  501    0  0.10241904602E+02  0.15135861423E+03 -0.73393598826E+03  0.76873286416E+03  0.17109603988E+03 0.  0.
       24    2    3    3    0    0  0.36293419434E+02  0.14012755410E+03 -0.71588581783E+03  0.73478118100E+03  0.80361284653E+02 0.  0.
       -6    2    1    2    0  503 -0.10241904602E+02 -0.15135861423E+03 -0.12865839515E+03  0.26366286631E+03  0.17306298771E+03 0.  0.
      -24    2    5    5    0    0 -0.52782355775E+01 -0.17167272520E+03 -0.72683126230E+02  0.20372438247E+03  0.81984162022E+02 0.  0.
        5    1    3    3  501    0 -0.26051514833E+02  0.11231060134E+02 -0.18050170434E+02  0.33951683161E+02  0.47000000000E+01 0. -1.
      -11    1    4    4    0    0 -0.22775111165E+02  0.55848140703E+02 -0.32649098439E+03  0.33201518549E+03  0.00000000000E+00 0.  1.
       12    1    4    4    0    0  0.59068530599E+02  0.84279413397E+02 -0.38939483344E+03  0.40276599551E+03  0.00000000000E+00 0. -1.
       -5    1    5    5    0  503 -0.49636690240E+01  0.20314110970E+02 -0.55975268923E+02  0.59938483845E+02  0.47000000000E+01 0.  1.
        3    1    6    6  502    0  0.79332303957E+00 -0.43623528598E+02 -0.61003363586E+02  0.75000346516E+02  0.00000000000E+00 0. -1.
       -4    1    6    6    0  502 -0.60715586171E+01 -0.12804919661E+03 -0.11679762644E+02  0.12872403595E+03  0.00000000000E+00 0.  1.
</event>
<event>
12   0  0.1544783E-01  0.1772489E+03  0.7957747E-01  0.1176016E+00
        2   -1    0    0  502    0  0.00000000000E+00  0.00000000000E+00  0.41314081236E+03  0.41314081236E+03  0.00000000000E+00 0.  1.
       -2   -1    0    0    0  501  0.00000000000E+00  0.00000000000E+00 -0.98151027983E+02  0.98151027983E+02  0.00000000000E+00 0. -1.
        6    2    1    2  502    0  0.43409294276E+02 -0.93422015349E+01  0.36188932723E+02  0.18093247595E+03  0.17162540151E+03 0.  0.
       24    2    3    3    0    0  0.17089876468E+02  0.75946750850E+01  0.87702608010E+02  0.12047324766E+03  0.80450686658E+02 0.  0.
       -6    2    1    2    0  501 -0.43409294276E+02  0.93422015349E+01  0.27880085166E+03  0.33035936440E+03  0.17156850294E+03 0.  0.
      -24    2    5    5    0    0  0.26871546580E+02 -0.67761577223E+01  0.71891184878E+02  0.11119527449E+03  0.80175122558E+02 0.  0.
        5    1    3    3  502    0  0.26319417808E+02 -0.16936876620E+02 -0.51513675287E+02  0.60459228287E+02  0.47000000000E+01 0. -1.
      -11    1    4    4    0    0  0.40388719996E+02  0.29944023858E+02  0.51752495282E+02  0.72154099230E+02  0.00000000000E+00 0.  1.
       12    1    4    4    0    0 -0.23298843528E+02 -0.22349348773E+02  0.35950112728E+02  0.48319148435E+02  0.00000000000E+00 0. -1.
       -5    1    5    5    0  501 -0.70280840856E+02  0.16118359257E+02  0.20690966678E+03  0.21916408991E+03  0.47000000000E+01 0.  1.
        3    1    6    6  503    0  0.45391155617E+01  0.23358636805E+02 -0.61769331060E+01  0.24584222299E+02  0.00000000000E+00 0. -1.
       -4    1    6    6    0  503  0.22332431018E+02 -0.30134794527E+02  0.78068117984E+02  0.86611052193E+02  0.00000000000E+00 0.  1.
</event>
<event>
12   0  0.1544783E-01  0.1926768E+03  0.7957747E-01  0.1162099E+00
       21   -1    0    0  504  503  0.00000000000E+00  0.00000000000E+00  0.40285806702E+03  0.40285806702E+03  0.00000000000E+00 0. -1.
       21   -1    0    0  501  504  0.00000000000E+00  0.00000000000E+00 -0.10316525043E+03  0.10316525043E+03  0.00000000000E+00 0. -1.
        6    2    1    2  501    0  0.18887265228E+02 -0.81949441996E+02  0.66520924755E+02  0.20354441352E+03  0.17301114130E+03 0.  0.
       24    2    3    3    0    0  0.87323109905E+01 -0.26994566675E+01  0.87265358301E+02  0.12086367336E+03  0.83121865098E+02 0.  0.
       -6    2    1    2    0  503 -0.18887265228E+02  0.81949441996E+02  0.23317189184E+03  0.30247890393E+03  0.17335488557E+03 0.  0.
      -24    2    5    5    0    0 -0.22568526940E+02  0.11407743364E+03  0.12299375372E+03  0.18755687970E+03  0.80790595959E+02 0.  0.
        5    1    3    3  501    0  0.10154954238E+02 -0.79249985328E+02 -0.20744433546E+02  0.82680740159E+02  0.47000000000E+01 0. -1.
        4    1    4    4  502    0 -0.22840622725E+02  0.25606287863E+02  0.15824248856E+02  0.37786014297E+02  0.00000000000E+00 0. -1.
       -3    1    4    4    0  502  0.31572933715E+02 -0.28305744530E+02  0.71441109445E+02  0.83077659064E+02  0.00000000000E+00 0.  1.
       -5    1    5    5    0  503  0.36812617116E+01 -0.32127991640E+02  0.11017813812E+03  0.11492202423E+03  0.47000000000E+01 0.  1.
       13    1    6    6    0    0 -0.82264809243E+01  0.37868863186E+02  0.99108564783E+02  0.10641538141E+03  0.00000000000E+00 0. -1.
      -14    1    6    6    0    0 -0.14342046015E+02  0.76208570450E+02  0.23885188935E+02  0.81141498288E+02  0.00000000000E+00 0.  1.
</event>
<event>
12   0  0.1544783E-01  0.1858393E+03  0.7957747E-01  0.1168084E+00
       -1   -1    0    0    0  501  0.00000000000E+00  0.00000000000E+00  0.38888428443E+02  0.38888428443E+02  0.00000000000E+00 0.  1.
        1   -1    0    0  502    0  0.00000000000E+00  0.00000000000E+00 -0.15140794554E+04  0.15140794554E+04  0.00000000000E+00 0. -1.
        6    2    1    2  502    0 -0.45465586574E+02  0.45534428051E+02 -0.12332881459E+04  0.12469857281E+04  0.17272304888E+03 0.  0.
       24    2    3    3    0    0  0.35421955700E+02 -0.73505858047E+01 -0.65315401153E+03  0.65883836304E+03  0.78416068386E+02 0.  0.
       -6    2    1    2    0  501  0.45465586574E+02 -0.45534428051E+02 -0.24190288109E+03  0.30598215576E+03  0.17597605536E+03 0.  0.
      -24    2    5    5    0    0  0.22164982433E+02  0.13377754313E+02 -0.22483513696E+03  0.24020251397E+03  0.80474580768E+02 0.  0.
        5    1    3    3  502    0 -0.80887542274E+02  0.52885013856E+02 -0.58013413437E+03  0.58814736508E+03  0.47000000000E+01 0. -1.
        2    1    4    4  503    0  0.42401713964E+02  0.14867223138E+02 -0.58677091628E+03  0.58848878313E+03  0.00000000000E+00 0. -1.
       -1    1    4    4    0  503 -0.69797582642E+01 -0.22217808943E+02 -0.66383095247E+02  0.70349579915E+02  0.00000000000E+00 0.  1.
       -5    1    5    5    0  501  0.23300604141E+02 -0.58912182364E+02 -0.17067744136E+02  0.65779641791E+02  0.47000000000E+01 0.  1.
       13    1    6    6    0    0 -0.47404172889E+01 -0.30587643498E+02 -0.11112342280E+03  0.11535376277E+03  0.00000000000E+00 0. -1.
      -14    1    6    6    0    0  0.26905399722E+02  0.43965397812E+02 -0.11371171416E+03  0.12484875120E+03  0.00000000000E+00 0.  1.
</event>
<event>
12   0  0.1544783E-01  0.1969050E+03  0.7957747E-01  0.1158533E+00
       21   -1    0    0  504  503  0.00000000000E+00  0.00000000000E+00  0.20667495824E+03  0.20667495824E+03  0.00000000000E+00 0. -1.
       21   -1    0    0  501  504  0.00000000000E+00  0.00000000000E+00 -0.18964332148E+03  0.18964332148E+03  0.00000000000E+00 0. -1.
        6    2    1    2  501    0  0.76730743562E+02 -0.51107661411E+02  0.31353903494E+02  0.19938563461E+03  0.17398840180E+03 0.  0.
       24    2    3    3    0    0  0.91876479179E+02 -0.12668262584E+02  0.71230870212E+02  0.14177276136E+03  0.80149277532E+02 0.  0.
       -6    2    1    2    0  503 -0.76730743562E+02  0.51107661411E+02 -0.14322266726E+02  0.19693264511E+03  0.17342934966E+03 0.  0.
      -24    2    5    5    0    0 -0.99709266111E+01  0.85698686042E+02  0.12698580075E+01  0.12000009999E+03  0.83395007600E+02 0.  0.
        5    1    3    3  501    0 -0.15145735617E+02 -0.38439398827E+02 -0.39876966718E+02  0.57612873251E+02  0.47000000000E+01 0. -1.
        2    1    4    4  502    0  0.63357429951E+02 -0.41871735453E+02  0.66009390843E+02  0.10062129913E+03  0.00000000000E+00 0. -1.
       -1    1    4    4    0  502  0.28519049228E+02  0.29203472869E+02  0.52214793688E+01  0.41151462226E+02  0.00000000000E+00 0.  1.
       -5    1    5    5    0  503 -0.66759816951E+02 -0.34591024631E+02 -0.15592124733E+02  0.76932545116E+02  0.47000000000E+01 0.  1.
       11    1    6    6    0    0 -0.45887176711E+02  0.34981275847E+02 -0.23478179789E+01  0.57748029366E+02  0.00000000000E+00 0. -1.
      -12    1    6    6    0    0  0.35916250099E+02  0.50717410195E+02  0.36176759864E+01  0.62252070629E+02  0.00000000000E+00 0.  1.
</event>
<event>
12   0  0.1544783E-01  0.1904322E+03  0.7957747E-01  0.1164033E+00
       21   -1    0    0  501  503  0.00000000000E+00  0.00000000000E+00  0.26590567990E+03  0.26590567990E+03  0.00000000000E+00 0. -1.
       21   -1    0    0  503  504  0.00000000000E+00  0.00000000000E+00 -0.13891992903E+03  0.13891992903E+03  0.00000000000E+00 0.  1.
        6    2    1    2  501    0 -0.78031496503E+02 -0.17321345321E+02  0.94621310850E+02  0.21264431846E+03  0.17284522052E+03 0.  0.
       24    2    3    3    0    0 -0.12078866304E+02  0.43873493017E+02  0.17160115930E+02  0.93829822765E+02  0.80242031758E+02 0.  0.
       -6    2    1    2    0  504  0.78031496503E+02  0.17321345321E+02  0.32364440027E+02  0.19218129047E+03  0.17174762874E+03 0.  0.
      -24    2    5    5    0    0  0.30705568364E+02  0.80544535737E+02  0.22923978167E+02  0.11250615256E+03  0.68570193405E+02 0.  0.
        5    1    3    3  501    0 -0.65952630199E+02 -0.61194838338E+02  0.77461194920E+02  0.11881449570E+03  0.47000000000E+01 0. -1.
      -13    1    4    4    0    0  0.15490005561E+02  0.50723927361E+02  0.31833706887E+02  0.61856624329E+02  0.00000000000E+00 0.  1.
       14    1    4    4    0    0 -0.27568871865E+02 -0.68504343448E+01 -0.14673590957E+02  0.31973198435E+02  0.00000000000E+00 0. -1.
       -5    1    5    5    0  504  0.47325928138E+02 -0.63223190416E+02  0.94404618604E+01  0.79675137908E+02  0.47000000000E+01 0.  1.
        3    1    6    6  502    0 -0.64150646216E+00  0.67867326304E+02  0.35296899205E+02  0.76500043161E+02  0.00000000000E+00 0. -1.
       -4    1    6    6    0  502  0.31347074826E+02  0.12677209433E+02 -0.12372921038E+02  0.36006109401E+02  0.00000000000E+00 0.  1.
</event>
<event>
12   0  0.1544783E-01  0.1735320E+03  0.7957747E-01  0.1179604E+00
       21   -1    0    0  501  503  0.00000000000E+00  0.00000000000E+00  0.65527571059E+02  0.65527571059E+02  0.00000000000E+00 0.  1.
       21   -1    0    0  503  504  0.00000000000E+00  0.00000000000E+00 -0.45408693408E+03  0.45408693408E+03  0.00000000000E+00 0.  1.
        6    2    1    2  501    0  0.20214869585E+02  0.96873692416E+01 -0.17636649660E+03  0.24742369325E+03  0.17207805433E+03 0.  0.
       24    2    3    3    0    0  0.29738793843E+02 -0.45220623328E+02 -0.16110326993E+03  0.18945258950E+03  0.83718095121E+02 0.  0.
       -6    2    1    2    0  504 -0.20214869585E+02 -0.96873692416E+01 -0.21219286642E+03  0.27219081189E+03  0.16899567877E+03 0.  0.
      -24    2    5    5    0    0 -0.66408251395E+02 -0.24167118419E+02 -0.85282543743E+02  0.13627976870E+03  0.79403763288E+02 0.  0.
        5    1    3    3  501    0 -0.95239242587E+01  0.54907992570E+02 -0.15263226668E+02  0.57971103747E+02  0.47000000000E+01 0. -1.
      -11    1    4    4    0    0 -0.26038636020E+02 -0.32864714131E+02 -0.57836332955E+02  0.71436275171E+02  0.00000000000E+00 0.  1.
       12    1    4    4    0    0  0.55777429863E+02 -0.12355909197E+02 -0.10326693698E+03  0.11801631433E+03  0.00000000000E+00 0. -1.
       -5    1    5    5    0  504  0.46193381810E+02  0.14479749177E+02 -0.12691032268E+03  0.13591104319E+03  0.47000000000E+01 0.  1.
        3    1    6    6  502    0 -0.33499408403E+02  0.19684426982E+02 -0.68827042860E+02  0.79037009419E+02  0.00000000000E+00 0. -1.
       -4    1    6    6    0  502 -0.32908842992E+02 -0.43851545401E+02 -0.16455500882E+02  0.57242759284E+02  0.00000000000E+00 0.  1.
</event>
<event>
12   0  0.1544783E-01  0.2009909E+03  0.7957747E-01  0.1155179E+00
        2   -1    0    0  502    0  0.00000000000E+00  0.00000000000E+00  0.83826336255E+03  0.83826336255E+03  0.00000000000E+00 0.  1.
       -2   -1    0    0    0  501  0.00000000000E+00  0.00000000000E+00 -0.83897208506E+02  0.83897208506E+02  0.00000000000E+00 0. -1.
        6    2    1    2  502    0 -0.82089077251E+02  0.69923347385E+02  0.68095184912E+03  0.71080147750E+03  0.17296077151E+03 0.  0.
       24    2    3    3    0    0 -0.11047069318E+03  0.52193469336E+02  0.37259016365E+03  0.40059367011E+03  0.81999549946E+02 0.  0.
       -6    2    1    2    0  501  0.82089077251E+02 -0.69923347385E+02  0.73414304921E+02  0.21135909355E+03  0.16629827163E+03 0.  0.
      -24    2    5    5    0    0  0.56245451190E+02  0.16060534276E+02  0.70281285567E+02  0.12139784232E+03  0.79852898996E+02 0.  0.
        5    1    3    3  502    0  0.28381615928E+02  0.17729878049E+02  0.30836168547E+03  0.31020780738E+03  0.47000000000E+01 0. -1.
        2    1    4    4  503    0 -0.32373017194E+02 -0.37968879621E+01  0.28370459915E+02  0.43212400954E+02  0.00000000000E+00 0. -1.
       -1    1    4    4    0  503 -0.78097675985E+02  0.55990357298E+02  0.34421970374E+03  0.35738126916E+03  0.00000000000E+00 0.  1.
       -5    1    5    5    0  501  0.25843626061E+02 -0.85983881661E+02  0.31330193538E+01  0.89961251235E+02  0.47000000000E+01 0.  1.
       11    1    6    6    0    0  0.33223679637E+02  0.13990718254E+02 -0.10360624401E+02  0.37508607330E+02  0.00000000000E+00 0. -1.
      -12    1    6    6    0    0  0.23021771553E+02  0.20698160219E+01  0.80641909968E+02  0.83889234990E+02  0.00000000000E+00 0.  1.
</event>
<event>
12   0  0.1544783E-01  0.2588854E+03  0.7957747E-01  0.1115383E+00
       21   -1    0    0  504  503  0.00000000000E+00  0.00000000000E+00  0.39484604580E+03  0.39484604580E+03  0.00000000000E+00 0.  1.
       21   -1    0    0  501  504  0.00000000000E+00  0.00000000000E+00 -0.17796633176E+03  0.17796633176E+03  0.00000000000E+00 0. -1.
        6    2    1    2  501    0  0.14945389220E+03 -0.12151486673E+03  0.46766897987E+02  0.26303826449E+03  0.17291517315E+03 0.  0.
       24    2    3    3    0    0  0.44981963887E+01 -0.46771471860E+02 -0.19931438712E+01  0.92749214609E+02  0.79941477578E+02 0.  0.
       -6    2    1    2    0  503 -0.14945389220E+03  0.12151486673E+03  0.17011281605E+03  0.30977411308E+03  0.17297196945E+03 0.  0.
      -24    2    5    5    0    0 -0.12276172080E+03  0.15567494995E+03  0.12948254291E+03  0.25017300239E+03  0.80719713027E+02 0.  0.
        5    1    3    3  501    0  0.14495569581E+03 -0.74743394874E+02  0.48760041858E+02  0.17028904988E+03  0.47000000000E+01 0. -1.
      -11    1    4    4    0    0 -0.94679041688E+00 -0.69200551283E+02 -0.54053900871E+01  0.69417799965E+02  0.00000000000E+00 0.  1.
       12    1    4    4    0    0  0.54449868056E+01  0.22429079423E+02  0.34122462158E+01  0.23331414644E+02  0.00000000000E+00 0. -1.
       -5    1    5    5    0  503 -0.26692171405E+02 -0.34160083218E+02  0.40630273137E+02  0.59601110686E+02  0.47000000000E+01 0.  1.
        3    1    6    6  502    0 -0.49919060705E+02  0.32487276687E+02  0.37560377030E+01  0.59677831625E+02  0.00000000000E+00 0. -1.
       -4    1    6    6    0  502 -0.72842660092E+02  0.12318767326E+03  0.12572650521E+03  0.19049517076E+03  0.00000000000E+00 0.  1.
</event>
<event>
12   0  0.1544783E-01  0.1872687E+03  0.7957747E-01  0.1166809E+00
       -1   -1    0    0    0  501  0.00000000000E+00  0.00000000000E+00  0.52765379563E+02  0.52765379563E+02  0.00000000000E+00 0. -1.
        1   -1    0    0  502    0  0.00000000000E+00  0.00000000000E+00 -0.67321115419E+03  0.67321115419E+03  0.00000000000E+00 0.  1.
        6    2    1    2  502    0 -0.57777055091E+02  0.42310859790E+02 -0.26961407743E+03  0.32839764866E+03  0.17327685346E+03 0.  0.
       24    2    3    3    0    0 -0.49814984825E+02 -0.14474152651E+02 -0.57667979251E+02  0.10878168673E+03  0.76268117381E+02 0.  0.
       -6    2    1    2    0  501  0.57777055091E+02 -0.42310859790E+02 -0.35083169719E+03  0.39757888509E+03  0.17279378798E+03 0.  0.
      -24    2    5    5    0    0 -0.81279811652E+01  0.10515707710E+02 -0.82423744080E+02  0.11615564630E+03  0.80757763667E+02 0.  0.
        5    1    3    3  502    0 -0.79620702659E+01  0.56785012440E+02 -0.21194609818E+03  0.21961596193E+03  0.47000000000E+01 0. -1.
        2    1    4    4  503    0 -0.43527844586E+02  0.10039947313E+02  0.12184864201E+01  0.44687341670E+02  0.00000000000E+00 0. -1.
       -1    1    4    4    0  503 -0.62871402388E+01 -0.24514099964E+02 -0.58886465671E+02  0.64094345060E+02  0.00000000000E+00 0.  1.
       -5    1    5    5    0  501  0.65905036256E+02 -0.52826567500E+02 -0.26840795311E+03  0.28142323879E+03  0.47000000000E+01 0.  1.
       11    1    6    6    0    0  0.35487806417E+02  0.77894782105E+01 -0.49682967025E+02  0.61550447500E+02  0.00000000000E+00 0. -1.
      -12    1    6    6    0    0 -0.43615787582E+02  0.27262294998E+01 -0.32740777056E+02  0.54605198799E+02  0.00000000000E+00 0.  1.
</event>
<event>
12   0  0.1544783E-01  0.4015896E+03  0.7957747E-01  0.1052494E+00
        1   -1    0    0  502    0  0.00000000000E+00  0.00000000000E+00  0.47080663915E+03  0.47080663915E+03  0.00000000000E+00 0.  1.
       -1   -1    0    0    0  501  0.00000000000E+00  0.00000000000E+00 -0.34350538459E+03  0.34350538459E+03  0.00000000000E+00 0. -1.
        6    2    1    2  502    0 -0.33119500418E+03  0.15079290916E+03  0.41989691448E+02  0.40238660628E+03  0.16650289631E+03 0.  0.
       24    2    3    3    0    0 -0.16014522294E+03  0.10927860168E+02  0.27560726338E+02  0.18091303083E+03  0.78765604979E+02 0.  0.
       -6    2    1    2    0  501  0.33119500418E+03 -0.15079290916E+03  0.85311563116E+02  0.41192541746E+03  0.17313536467E+03 0.  0.
      -24    2    5    5    0    0  0.31739756435E+03 -0.10562482956E+03  0.39802333034E+02  0.34617053336E+03  0.79699397592E+02 0.  0.
        5    1    3    3  502    0 -0.17104978124E+03  0.13986504899E+03  0.14428965110E+02  0.22147357545E+03  0.47000000000E+01 0. -1.
      -13    1    4    4    0    0 -0.16523692308E+03 -0.64482115730E+00  0.20704161610E+02  0.16653023405E+03  0.00000000000E+00 0.  1.
       14    1    4    4    0    0  0.50917001388E+01  0.11572681325E+02  0.68565647281E+01  0.14382796780E+02  0.00000000000E+00 0. -1.
       -5    1    5    5    0  501  0.13797439834E+02 -0.45168079600E+02  0.45509230082E+02  0.65754884103E+02  0.47000000000E+01 0.  1.
        1    1    6    6  503    0  0.14427567686E+03 -0.90401395832E+01  0.33005042785E+01  0.14459629451E+03  0.00000000000E+00 0. -1.
       -2    1    6    6    0  503  0.17312188749E+03 -0.96584689975E+02  0.36501828755E+02  0.20157423885E+03  0.00000000000E+00 0.  1.
</event>
<event>
12   0  0.1544783E-01  0.1982733E+03  0.7957747E-01  0.1157400E+00
       21   -1    0    0  501  503  0.00000000000E+00  0.00000000000E+00  0.50846534182E+03  0.50846534182E+03  0.00000000000E+00 0.  1.
       21   -1    0    0  503  504  0.00000000000E+00  0.00000000000E+00 -0.76378381410E+02  0.76378381410E+02  0.00000000000E+00 0.  1.
        6    2    1    2  501    0 -0.79895051428E+02 -0.48335039198E+02  0.24473057853E+03  0.31205312420E+03  0.16960130012E+03 0.  0.
       24    2    3    3    0    0 -0.16616048660E+02 -0.81701622855E+02  0.11134328953E+03  0.16062056508E+03  0.80314317241E+02 0.  0.
       -6    2    1    2    0  504  0.79895051428E+02  0.48335039198E+02  0.18735638189E+03  0.27279059903E+03  0.17490798103E+03 0.  0.
      -24    2    5    5    0    0 -0.82369072892E+01  0.55681841571E+02  0.14364462932E+03  0.17402813164E+03  0.80521406761E+02 0.  0.
        5    1    3    3  501    0 -0.63279002768E+02  0.33366583656E+02  0.13338728900E+03  0.15143255913E+03  0.47000000000E+01 0. -1.
      -11    1    4    4    0    0  0.10359191429E+02 -0.28498411082E+02  0.93596076458E+02  0.98385455275E+02  0.00000000000E+00 0.  1.
       12    1    4    4    0    0 -0.26975240089E+02 -0.53203211772E+02  0.17747213068E+02  0.62235109805E+02  0.00000000000E+00 0. -1.
       -5    1    5    5    0  504  0.88131958717E+02 -0.73468023729E+01  0.43711752567E+02  0.98762467390E+02  0.47000000000E+01 0.  1.
        3    1    6    6  502    0 -0.21874249727E+02 -0.73105807492E+01  0.90089507313E+01  0.24760625705E+02  0.00000000000E+00 0. -1.
       -4    1    6    6    0  502  0.13637342438E+02  0.62992422320E+02  0.13463567859E+03  0.14926750593E+03  0.00000000000E+00 0.  1.
</event>
<event>
12   0  0.1544783E-01  0.1756840E+03  0.7957747E-01  0.1177515E+00
       21   -1    0    0  504  503  0.00000000000E+00  0.00000000000E+00  0.29211794777E+03  0.29211794777E+03  0.00000000000E+00 0. -1.
       21   -1    0    0  501  504  0.00000000000E+00  0.00000000000E+00 -0.11413760828E+03  0.11413760828E+03  0.00000000000E+00 0. -1.
        6    2    1    2  501    0  0.29054058093E+02  0.65313006203E+01  0.14564095900E+03  0.22820198925E+03  0.17314174188E+03 0.  0.
       24    2    3    3    0    0  0.16531458454E+02 -0.16750268743E+02  0.36063421552E+01  0.83651757999E+02  0.80191959017E+02 0.  0.
       -6    2    1    2    0  503 -0.29054058093E+02 -0.65313006203E+01  0.32339380493E+02  0.17805356680E+03  0.17254112825E+03 0.  0.
      -24    2    5    5    0    0  0.39138521001E+02  0.34510364568E+02  0.21546523188E+02  0.97597231473E+02  0.79612673871E+02 0.  0.
        5    1    3    3  501    0  0.12522599639E+02  0.23281569364E+02  0.14203461684E+03  0.14455023125E+03  0.47000000000E+01 0. -1.
      -11    1    4    4    0    0  0.12243798419E+02 -0.42216789690E+02  0.24598493924E+02  0.50371160745E+02  0.00000000000E+00 0.  1.
       12    1    4    4    0    0  0.42876600351E+01  0.25466520947E+02 -0.20992151769E+02  0.33280597254E+02  0.00000000000E+00 0. -1.
       -5    1    5    5    0  503 -0.68192579095E+02 -0.41041665188E+02  0.10792857305E+02  0.80456335324E+02  0.47000000000E+01 0.  1.
        1    1    6    6  502    0  0.10756738266E+02 -0.25400163169E+02 -0.92336469548E+00  0.27599425890E+02  0.00000000000E+00 0. -1.
       -2    1    6    6    0  502  0.28381782735E+02  0.59910527736E+02  0.22469887884E+02  0.69997805582E+02  0.00000000000E+00 0.  1.
</event>
<event>
12   0  0.1544783E-01  0.2239074E+03  0.7957747E-01  0.1137862E+00
        2   -1    0    0  502    0  0.00000000000E+00  0.00000000000E+00  0.42025889497E+03  0.42025889497E+03  0.00000000000E+00 0.  1.
       -2   -1    0    0    0  501  0.00000000000E+00  0.00000000000E+00 -0.14306764902E+03  0.14306764902E+03  0.00000000000E+00 0. -1.
        6    2    1    2  502    0 -0.36677115715E+02  0.14501182896E+03  0.21851877961E+02  0.22108982814E+03  0.16133680976E+03 0.  0.
       24    2    3    3    0    0  0.64919483159E+01  0.88633725116E+02  0.66723961776E+02  0.13696104241E+03  0.80050967783E+02 0.  0.
       -6    2    1    2    0  501  0.36677115715E+02 -0.14501182896E+03  0.25533936799E+03  0.34223671585E+03  0.17191316260E+03 0.  0.
      -24    2    5    5    0    0  0.19928477872E+02 -0.88299097747E+02  0.25563578256E+03  0.28291531488E+03  0.80607364267E+02 0.  0.
        5    1    3    3  502    0 -0.43169064031E+02  0.56378103848E+02 -0.44872083815E+02  0.84128785732E+02  0.47000000000E+01 0. -1.
      -13    1    4    4    0    0  0.46644695798E+01  0.87798692269E+02  0.19967394089E+02  0.90161324676E+02  0.00000000000E+00 0.  1.
       14    1    4    4    0    0  0.18274787361E+01  0.83503284629E+00  0.46756567687E+02  0.46799717737E+02  0.00000000000E+00 0. -1.
       -5    1    5    5    0  501  0.16748637844E+02 -0.56712731216E+02 -0.29641457323E+00  0.59321400971E+02  0.47000000000E+01 0.  1.
        1    1    6    6  503    0 -0.28525608639E+02 -0.56327855495E+02  0.13076045133E+03  0.14520617509E+03  0.00000000000E+00 0. -1.
       -2    1    6    6    0  503  0.48454086510E+02 -0.31971242253E+02  0.12487533123E+03  0.13770913979E+03  0.00000000000E+00 0.  1.
</event>
<event>
12   0  0.1544783E-01  0.1830820E+03  0.7957747E-01  0.1170578E+00
       -1   -1    0    0    0  501  0.00000000000E+00  0.00000000000E+00  0.16615659312E+02  0.16615659312E+02  0.00000000000E+00 0.  1.
        1   -1    0    0  502    0  0.00000000000E+00  0.00000000000E+00 -0.20179719034E+04  0.20179719034E+04  0.00000000000E+00 0. -1.
        6    2    1    2  502    0  0.29953892286E+02  0.51369436722E+02 -0.97935668653E+03  0.99621292631E+03  0.17252426032E+03 0.  0.
       24    2    3    3    0    0  0.34340140820E+02 -0.36018428847E+02 -0.50996851216E+03  0.51871609233E+03  0.80758458096E+02 0.  0.
       -6    2    1    2    0  501 -0.29953892286E+02 -0.51369436722E+02 -0.10219995575E+04  0.10383746364E+04  0.17378934141E+03 0.  0.
      -24    2    5    5    0    0  0.38282233664E+01 -0.92622170043E+02 -0.84053008058E+03  0.84917558667E+03  0.77555392882E+02 0.  0.
        5    1    3    3  502    0 -0.43862485343E+01  0.87387865570E+02 -0.46938817436E+03  0.47749683398E+03  0.47000000000E+01 0. -1.
      -11    1    4    4    0    0 -0.25072776992E+01  0.62771229965E+01 -0.12006448181E+01  0.68651484000E+01  0.00000000000E+00 0.  1.
       12    1    4    4    0    0  0.36847418520E+02 -0.42295551844E+02 -0.50876786735E+03  0.51185094393E+03  0.00000000000E+00 0. -1.
       -5    1    5    5    0  501 -0.33782115652E+02  0.41252733320E+02 -0.18146947696E+03  0.18919904972E+03  0.47000000000E+01 0.  1.
        1    1    6    6  503    0  0.27692903011E+02 -0.91912885592E+02 -0.62532264701E+03  0.63264783907E+03  0.00000000000E+00 0. -1.
       -2    1    6    6    0  503 -0.23864679644E+02 -0.70928445085E+00 -0.21520743357E+03  0.21652774760E+03  0.00000000000E+00 0.  1.
</event>
<event>
12   0  0.1544783E-01  0.1800320E+03  0.7957747E-01  0.1173393E+00
       21   -1    0    0  501  503  0.00000000000E+00  0.00000000000E+00  0.51299570469E+02  0.51299570469E+02  0.00000000000E+00 0. -1.
       21   -1    0    0  503  504  0.00000000000E+00  0.00000000000E+00 -0.63630478637E+03  0.63630478637E+03  0.00000000000E+00 0. -1.
        6    2    1    2  501    0 -0.27540921525E+02 -0.40450067764E+02 -0.25751564632E+03  0.31389200577E+03  0.17268228875E+03 0.  0.
       24    2    3    3    0    0  0.36274423771E+02  0.11555920604E+02 -0.84279027550E+02  0.12203258535E+03  0.79621757589E+02 0.  0.
       -6    2    1    2    0  504  0.27540921525E+02  0.40450067764E+02 -0.32748956958E+03  0.37371235106E+03  0.17325355066E+03 0.  0.
      -24    2    5    5    0    0 -0.13284558646E+02  0.11555470512E+02 -0.31040647027E+03  0.32065069011E+03  0.78451767868E+02 0.  0.
        5    1    3    3  501    0 -0.63815345296E+02 -0.52005988368E+02 -0.17323661877E+03  0.19185942042E+03  0.47000000000E+01 0. -1.
      -13    1    4    4    0    0  0.45720029965E+02  0.12332433059E+01 -0.94310825236E+02  0.10481590426E+03  0.00000000000E+00 0.  1.
       14    1    4    4    0    0 -0.94456061941E+01  0.10322677298E+02  0.10031797686E+02  0.17216681091E+02  0.00000000000E+00 0. -1.
       -5    1    5    5    0  504  0.40825480171E+02  0.28894597253E+02 -0.17083099303E+02  0.53061660956E+02  0.47000000000E+01 0.  1.
        1    1    6    6  502    0  0.22728643940E+02 -0.51355938588E+01 -0.32877600224E+02  0.40297669611E+02  0.00000000000E+00 0. -1.
       -2    1    6    6    0  502 -0.36013202586E+02  0.16691064370E+02 -0.27752887005E+03  0.28035302050E+03  0.00000000000E+00 0.  1.
</event>
<event>
12   0  0.1544783E-01  0.2977188E+03  0.7957747E-01  0.1094563E+00
       21   -1    0    0  504  503  0.00000000000E+00  0.00000000000E+00  0.87528406346E+03  0.87528406346E+03  0.00000000000E+00 0. -1.
       21   -1    0    0  501  504  0.00000000000E+00  0.00000000000E+00 -0.10279141371E+03  0.10279141371E+03  0.00000000000E+00 0.  1.
        6    2    1    2  501    0  0.21905901156E+03 -0.10217551839E+03  0.45063174455E+03  0.53963402089E+03  0.17236362785E+03 0.  0.
       24    2    3    3    0    0  0.16887219911E+03 -0.24538077109E+02  0.21599421843E+03  0.28739772871E+03  0.82607597774E+02 0.  0.
       -6    2    1    2    0  503 -0.21905901156E+03  0.10217551839E+03  0.32186090521E+03  0.43844145628E+03  0.17380961188E+03 0.  0.
      -24    2    5    5    0    0 -0.54322244596E+02 -0.10666327685E+02  0.12402707404E+03  0.15731550698E+03  0.79377432797E+02 0.  0.
        5    1    3    3  501    0  0.50186812450E+02 -0.77637441280E+02  0.23463752611E+03  0.25223629218E+03  0.47000000000E+01 0. -1.
        4    1    4    4  502    0  0.40795712054E+02  0.29717988326E+02  0.55583099210E+02  0.75079490342E+02  0.00000000000E+00 0. -1.
       -3    1    4    4    0  502  0.12807648705E+03 -0.54256065435E+02  0.16041111922E+03  0.21231823837E+03  0.00000000000E+00 0.  1.
       -5    1    5    5    0  503 -0.16473676696E+03  0.11284184607E+03  0.19783383116E+03  0.28112594930E+03  0.47000000000E+01 0.  1.
       13    1    6    6    0    0  0.89570789062E+01  0.63342229067E+01 -0.54151671387E+01  0.12234201139E+02  0.00000000000E+00 0. -1.
      -14    1    6    6    0    0 -0.63279323502E+02 -0.17000550591E+02  0.12944224118E+03  0.14508130584E+03  0.00000000000E+00 0.  1.
</event>
<event>
12   0  0.1544783E-01  0.1978637E+03  0.7957747E-01  0.1157738E+00
       21   -1    0    0  504  503  0.00000000000E+00  0.00000000000E+00  0.60917176867E+02  0.60917176867E+02  0.00000000000E+00 0.  1.
       21   -1    0    0  501  504  0.00000000000E+00  0.00000000000E+00 -0.64622486021E+03  0.64622486021E+03  0.00000000000E+00 0.  1.
        6    2    1    2  501    0  0.55729594988E+01 -0.95156658024E+02 -0.32524107944E+03  0.38069911818E+03  0.17339034397E+03 0.  0.
       24    2    3    3    0    0 -0.26982887965E+02 -0.43257609998E+02 -0.70282870302E+02  0.11844128169E+03  0.80556553339E+02 0.  0.
       -6    2    1    2    0  503 -0.55729594988E+01  0.95156658024E+02 -0.26006660390E+03  0.32644291890E+03  0.17275558859E+03 0.  0.
      -24    2    5    5    0    0 -0.18144945206E+02  0.27008084020E+02 -0.23811310793E+03  0.25359836558E+03  0.80966679671E+02 0.  0.
        5    1    3    3  501    0  0.32555847464E+02 -0.51899048025E+02 -0.25495820914E+03  0.26225783649E+03  0.47000000000E+01 0. -1.
      -11    1    4    4    0    0 -0.19524577032E+01 -0.42121778050E+02 -0.80899018077E+02  0.91228873736E+02  0.00000000000E+00 0.  1.
       12    1    4    4    0    0 -0.25030430262E+02 -0.11358319478E+01  0.10616147776E+02  0.27212407959E+02  0.00000000000E+00 0. -1.
       -5    1    5    5    0  503  0.12571985707E+02  0.68148574004E+02 -0.21953495976E+02  0.72844553324E+02  0.47000000000E+01 0.  1.
        1    1    6    6  502    0 -0.36817330495E+02 -0.73205682431E+01 -0.56533045497E+02  0.67860826530E+02  0.00000000000E+00 0. -1.
       -2    1    6    6    0  502  0.18672385289E+02  0.34328652263E+02 -0.18158006243E+03  0.18573753905E+03  0.00000000000E+00 0.  1.
</event>
<event>
12   0  0.1544783E-01  0.1979482E+03  0.7957747E-01  0.1157668E+00
       21   -1    0    0  501  503  0.00000000000E+00  0.00000000000E+00  0.10897403646E+04  0.10897403646E+04  0.00000000000E+00 0.  1.
       21   -1    0    0  503  504  0.00000000000E+00  0.00000000000E+00 -0.10622934713E+03  0.10622934713E+03  0.00000000000E+00 0.  1.
        6    2    1    2  501    0 -0.89372594713E+02 -0.32709139614E+02  0.97826899235E+03  0.99795207108E+03  0.17274480100E+03 0.  0.
       24    2    3    3    0    0 -0.97638492670E+02  0.27114047972E+02  0.53558724060E+03  0.55114521999E+03  0.81479533510E+02 0.  0.
       -6    2    1    2    0  504  0.89372594713E+02  0.32709139614E+02  0.52420250969E+01  0.19801764064E+03  0.17356888741E+03 0.  0.
      -24    2    5    5    0    0  0.67324350315E+02  0.68885689768E+02  0.50243674787E+02  0.13603291399E+03  0.81870143725E+02 0.  0.
        5    1    3    3  501    0  0.82658979568E+01 -0.59823187586E+02  0.44268175176E+03  0.44680685109E+03  0.47000000000E+01 0. -1.
        4    1    4    4  502    0 -0.93351053521E+02 -0.88040674658E+01  0.39550933696E+03  0.40647209796E+03  0.00000000000E+00 0. -1.
       -3    1    4    4    0  502 -0.42874391493E+01  0.35918115438E+02  0.14007790363E+03  0.14467312203E+03  0.00000000000E+00 0.  1.
       -5    1    5    5    0  504  0.22048244399E+02 -0.36176550154E+02 -0.45001649690E+02  0.61984726642E+02  0.47000000000E+01 0.  1.
       11    1    6    6    0    0 -0.34833636062E+01 -0.88560775657E+01  0.26602467096E+02  0.28253410192E+02  0.00000000000E+00 0. -1.
      -12    1    6    6    0    0  0.70807713921E+02  0.77741767334E+02  0.23641207691E+02  0.10777950380E+03  0.00000000000E+00 0.  1.
</event>
<event>
12   0  0.1544783E-01  0.2017172E+03  0.7957747E-01  0.1154592E+00
       21   -1    0    0  501  503  0.00000000000E+00  0.00000000000E+00  0.32469282629E+03  0.32469282629E+03  0.00000000000E+00 0. -1.
       21   -1    0    0  503  504  0.00000000000E+00  0.00000000000E+00 -0.27889671181E+03  0.27889671181E+03  0.00000000000E+00 0. -1.
        6    2    1    2  501    0  0.10278562728E+03  0.55125965344E+01  0.24703732069E+03  0.31893145919E+03  0.17347784858E+03 0.  0.
       24    2    3    3    0    0  0.70433094437E+02 -0.61103062024E+02  0.13220372479E+03  0.18220846517E+03  0.83831348245E+02 0.  0.
       -6    2    1    2    0  504 -0.10278562728E+03 -0.55125965344E+01 -0.20124120621E+03  0.28465807891E+03  0.17302290286E+03 0.  0.
      -24    2    5    5    0    0 -0.13266012146E+03  0.24522062089E+02 -0.14560262935E+03  0.21457022436E+03  0.81487521455E+02 0.  0.
        5    1    3    3  501    0  0.32352532846E+02  0.66615658559E+02  0.11483359590E+03  0.13672299402E+03  0.47000000000E+01 0. -1.
      -13    1    4    4    0    0  0.25507845933E+02 -0.68487458245E+02  0.10866548394E+03  0.13095560141E+03  0.00000000000E+00 0.  1.
       14    1    4    4    0    0  0.44925248504E+02  0.73843962206E+01  0.23538240852E+02  0.51252863755E+02  0.00000000000E+00 0. -1.
       -5    1    5    5    0  504  0.29874494174E+02 -0.30034658623E+02 -0.55638576859E+02  0.70087854552E+02  0.47000000000E+01 0.  1.
        1    1    6    6  502    0 -0.15318640614E+02 -0.25537682743E+02 -0.32482719076E+02  0.44067686899E+02  0.00000000000E+00 0. -1.
       -2    1    6    6    0  502 -0.11734148084E+03  0.50059744831E+02 -0.11311991028E+03  0.17050253746E+03  0.00000000000E+00 0.  1.
</event>
<event>
12   0  0.1544783E-01  0.1831006E+03  0.7957747E-01  0.1170561E+00
       21   -1    0    0  504  503  0.00000000000E+00  0.00000000000E+00  0.37941364667E+03  0.37941364667E+03  0.00000000000E+00 0.  1.
       21   -1    0    0  501  504  0.00000000000E+00  0.00000000000E+00 -0.90272663941E+02  0.90272663941E+02  0.00000000000E+00 0. -1.
        6    2    1    2  501    0 -0.35907221140E+02 -0.47434859669E+02  0.18540705894E+03  0.25924256130E+03  0.17114769540E+03 0.  0.
       24    2    3    3    0    0 -0.22072828616E+02  0.37492781041E+02  0.75677568159E+02  0.11971928109E+03  0.81931029220E+02 0.  0.
       -6    2    1    2    0  503  0.35907221140E+02  0.47434859669E+02  0.10373392379E+03  0.21044374931E+03  0.17316596155E+03 0.  0.
      -24    2    5    5    0    0 -0.33768764428E+02  0.51150615872E+02  0.97792251449E+02  0.14025868481E+03  0.79702316563E+02 0.  0.
        5    1    3    3  501    0 -0.13834392525E+02 -0.84927640710E+02  0.10972949078E+03  0.13952328021E+03  0.47000000000E+01 0. -1.
        4    1    4    4  502    0 -0.32695891026E+02  0.19765097415E+02 -0.30470796877E+01  0.38327079988E+02  0.00000000000E+00 0. -1.
       -3    1    4    4    0  502  0.10623062410E+02  0.17727683626E+02  0.78724647846E+02  0.81392201102E+02  0.00000000000E+00 0.  1.
       -5    1    5    5    0  503  0.69675985568E+02 -0.37157562036E+01  0.59416723377E+01  0.70185064503E+02  0.47000000000E+01 0.  1.
       11    1    6    6    0    0 -0.33533796384E+01  0.44926497617E+02  0.86624597635E+01  0.45876721246E+02  0.00000000000E+00 0. -1.
      -12    1    6    6    0    0 -0.30415384789E+02  0.62241182552E+01  0.89129791686E+02  0.94381963562E+02  0.00000000000E+00 0.  1.
</event>
<event>
12   0  0.1544783E-01  0.1781059E+03  0.7957747E-01  0.1175203E+00
       21   -1    0    0  501  503  0.00000000000E+00  0.00000000000E+00  0.19435278139E+03  0.19435278139E+03  0.00000000000E+00 0. -1.
       21   -1    0    0  503  504  0.00000000000E+00  0.00000000000E+00 -0.62110520323E+03  0.62110520323E+03  0.00000000000E+00 0. -1.
        6    2    1    2  501    0 -0.90763330745E+01 -0.38132374138E+02  0.13685521432E+03  0.22461315840E+03  0.17373906716E+03 0.  0.
       24    2    3    3    0    0 -0.41845367596E+02 -0.82675530544E+02  0.91577485291E+02  0.15298868526E+03  0.80204886792E+02 0.  0.
       -6    2    1    2    0  504  0.90763330745E+01  0.38132374138E+02 -0.56360763617E+03  0.59084482622E+03  0.17293809106E+03 0.  0.
      -24    2    5    5    0    0  0.49718651592E+02  0.62414888147E+02 -0.50526492719E+03  0.51556268868E+03  0.64379163809E+02 0.  0.
        5    1    3    3  501    0  0.32769034522E+02  0.44543156406E+02  0.45277729033E+02  0.71624473139E+02  0.47000000000E+01 0. -1.
      -13    1    4    4    0    0  0.12044732076E+02 -0.55067253703E+02  0.21387190141E+02  0.60290048128E+02  0.00000000000E+00 0.  1.
       14    1    4    4    0    0 -0.53890099672E+02 -0.27608276841E+02  0.70190295150E+02  0.92698637132E+02  0.00000000000E+00 0. -1.
       -5    1    5    5    0  504 -0.40642318518E+02 -0.24282514009E+02 -0.58342708982E+02  0.75282137539E+02  0.47000000000E+01 0.  1.
        1    1    6    6  502    0  0.29823440084E+02  0.64060887274E+01 -0.30881865911E+03  0.31032151031E+03  0.00000000000E+00 0. -1.
       -2    1    6    6    0  502  0.19895211509E+02  0.56008799420E+02 -0.19644626808E+03  0.20524117837E+03  0.00000000000E+00 0.  1.
</event>
<event>
12   0  0.1544783E-01  0.2189599E+03  0.7957747E-01  0.1141403E+00
       21   -1    0    0  504  503  0.00000000000E+00  0.00000000000E+00  0.10172118480E+03  0.10172118480E+03  0.00000000000E+00 0. -1.
       21   -1    0    0  501  504  0.00000000000E+00  0.00000000000E+00 -0.59472814684E+03  0.59472814684E+03  0.00000000000E+00 0. -1.
        6    2    1    2  501    0  0.49031349198E+01 -0.13393450027E+03 -0.40596134079E+03  0.46082174597E+03  0.17201622089E+03 0.  0.
       24    2    3    3    0    0 -0.37804764338E+02 -0.26766161949E+02 -0.11362964872E+03  0.14651468975E+03  0.80057664305E+02 0.  0.
       -6    2    1    2    0  503 -0.49031349198E+01  0.13393450027E+03 -0.87045621248E+02  0.23562758567E+03  0.17315001547E+03 0.  0.
      -24    2    5    5    0    0 -0.65189296993E+02  0.10317769711E+03 -0.33050691024E+02  0.14892150302E+03  0.78676453042E+02 0.  0.
        5    1    3    3  501    0  0.42707899258E+02 -0.10716833833E+03 -0.29233169207E+03  0.31430705622E+03  0.47000000000E+01 0. -1.
      -11    1    4    4    0    0  0.66179713968E+01  0.21317471477E+02 -0.11251988238E+02  0.24996787291E+02  0.00000000000E+00 0.  1.
       12    1    4    4    0    0 -0.44422735735E+02 -0.48083633427E+02 -0.10237766048E+03  0.12151790246E+03  0.00000000000E+00 0. -1.
       -5    1    5    5    0  503  0.60286162073E+02  0.30756803167E+02 -0.53994930224E+02  0.86706082650E+02  0.47000000000E+01 0.  1.
        1    1    6    6  502    0 -0.13967542088E+01  0.29462153163E+02  0.22155398537E+02  0.36889443959E+02  0.00000000000E+00 0. -1.
       -2    1    6    6    0  502 -0.63792542784E+02  0.73715543945E+02 -0.55206089560E+02  0.11203205907E+03  0.00000000000E+00 0.  1.
</event>
<event>
12   0  0.1544783E-01  0.2769943E+03  0.7957747E-01  0.1105213E+00
       21   -1    0    0  501  503  0.00000000000E+00  0.00000000000E+00  0.57181975354E+03  0.57181975354E+03  0.00000000000E+00 0.  1.
       21   -1    0    0  503  504  0.00000000000E+00  0.00000000000E+00 -0.14995710724E+03  0.14995710724E+03  0.00000000000E+00 0. -1.
        6    2    1    2  501    0 -0.17459048332E+02 -0.21584788564E+03  0.33116938010E+03  0.43031310547E+03  0.16911854517E+03 0.  0.
       24    2    3    3    0    0 -0.79341780240E+00 -0.60055645652E+02  0.20221906229E+03  0.22733714693E+03  0.84748564220E+02 0.  0.
       -6    2    1    2    0  504  0.17459048332E+02  0.21584788564E+03  0.90693266193E+02  0.29146375531E+03  0.17271573183E+03 0.  0.
      -24    2    5    5    0    0  0.16492429747E+02  0.17289890902E+03  0.29548116208E+00  0.19126695654E+03  0.80105732490E+02 0.  0.
        5    1    3    3  501    0 -0.16665630529E+02 -0.15579223998E+03  0.12895031782E+03  0.20297595854E+03  0.47000000000E+01 0. -1.
      -11    1    4    4    0    0  0.10023738583E+02 -0.79363148096E+02  0.13923798349E+03  0.16058082282E+03  0.00000000000E+00 0.  1.
       12    1    4    4    0    0 -0.10817156385E+02  0.19307502444E+02  0.62981078799E+02  0.66756324117E+02  0.00000000000E+00 0. -1.
       -5    1    5    5    0  504  0.96661858446E+00  0.42948976618E+02  0.90397785031E+02  0.10019679876E+03  0.47000000000E+01 0.  1.
        3    1    6    6  502    0  0.44507757867E+02  0.14397871496E+03  0.46123337126E+01  0.15077163027E+03  0.00000000000E+00 0. -1.
       -4    1    6    6    0  502 -0.28015328119E+02  0.28920194052E+02 -0.43168525505E+01  0.40495326269E+02  0.00000000000E+00 0.  1.
</event>
<event>
12   0  0.1544783E-01  0.1953275E+03  0.7957747E-01  0.1159852E+00
       21   -1    0    0  501  503  0.00000000000E+00  0.00000000000E+00  0.16642334801E+03  0.16642334801E+03  0.00000000000E+00 0.  1.
       21   -1    0    0  503  504  0.00000000000E+00  0.00000000000E+00 -0.24757042944E+03  0.24757042944E+03  0.00000000000E+00 0.  1.
        6    2    1    2  501    0 -0.84322405447E+02 -0.28885122242E+02 -0.99987329679E+02  0.21943173213E+03  0.17380506500E+03 0.  0.
       24    2    3    3    0    0 -0.30192010482E+02  0.18662788693E+01 -0.12533738319E+03  0.15204877031E+03  0.80587396253E+02 0.  0.
       -6    2    1    2    0  504  0.84322405447E+02  0.28885122242E+02  0.18840248252E+02  0.19456204533E+03  0.17191514238E+03 0.  0.
      -24    2    5    5    0    0 -0.22675422620E+01 -0.18969703161E+01 -0.35038899076E+02  0.87929926417E+02  0.80592848733E+02 0.  0.
        5    1    3    3  501    0 -0.54130394966E+02 -0.30751401111E+02  0.25350053513E+02  0.67382961812E+02  0.47000000000E+01 0. -1.
        2    1    4    4  502    0 -0.24363202447E+01 -0.32404849820E+02 -0.89518588285E+02  0.95234382429E+02  0.00000000000E+00 0. -1.
       -1    1    4    4    0  502 -0.27755690237E+02  0.34271128689E+02 -0.35818794908E+02  0.56814387886E+02  0.00000000000E+00 0.  1.
       -5    1    5    5    0  504  0.86589947709E+02  0.30782092558E+02  0.53879147328E+02  0.10663211891E+03  0.47000000000E+01 0.  1.
       11    1    6    6    0    0 -0.32162973390E+02  0.24730846823E+02 -0.16242191289E+02  0.43702178661E+02  0.00000000000E+00 0. -1.
      -12    1    6    6    0    0  0.29895431128E+02 -0.26627817139E+02 -0.18796707787E+02  0.44227747756E+02  0.00000000000E+00 0.  1.
</event>
<event>
12   0  0.1544783E-01  0.1832254E+03  0.7957747E-01  0.1170447E+00
       21   -1    0    0  501  503  0.00000000000E+00  0.00000000000E+00  0.20211211753E+03  0.20211211753E+03  0.00000000000E+00 0. -1.
       21   -1    0    0  503  504  0.00000000000E+00  0.00000000000E+00 -0.20812483793E+03  0.20812483793E+03  0.00000000000E+00 0. -1.
        6    2    1    2  501    0 -0.24874213310E+02 -0.53217571348E+02  0.89543848900E+02  0.20393537964E+03  0.17355316709E+03 0.  0.
       24    2    3    3    0    0 -0.55982210867E+02 -0.67244389202E+01 -0.43629448494E+00  0.97879568494E+02  0.80006209530E+02 0.  0.
       -6    2    1    2    0  504  0.24874213310E+02  0.53217571348E+02 -0.95556569299E+02  0.20630157583E+03  0.17314284814E+03 0.  0.
      -24    2    5    5    0    0 -0.37693450075E+02  0.78224828759E+02 -0.80178306093E+02  0.13702924077E+03  0.69343579697E+02 0.  0.
        5    1    3    3  501    0  0.31107997557E+02 -0.46493132428E+02  0.89980143385E+02  0.10605581115E+03  0.47000000000E+01 0. -1.
        2    1    4    4  502    0 -0.45099455056E+02 -0.41578487985E+02 -0.13204508085E+01  0.61355318431E+02  0.00000000000E+00 0. -1.
       -1    1    4    4    0  502 -0.10882755810E+02  0.34854049065E+02  0.88415632355E+00  0.36524250063E+02  0.00000000000E+00 0.  1.
       -5    1    5    5    0  504  0.62567663385E+02 -0.25007257411E+02 -0.15378263206E+02  0.69272335054E+02  0.47000000000E+01 0.  1.
       11    1    6    6    0    0 -0.82089984005E+01  0.79761088149E+02 -0.48425112814E+02  0.93670755247E+02  0.00000000000E+00 0. -1.
      -12    1    6    6    0    0 -0.29484451675E+02 -0.15362593905E+01 -0.31753193279E+02  0.43358485523E+02  0.00000000000E+00 0.  1.
</event>
<event>
12   0  0.1544783E-01  0.1781943E+03  0.7957747E-01  0.1175119E+00
       21   -1    0    0  504  503  0.00000000000E+00  0.00000000000E+00  0.41100992929E+02  0.41100992929E+02  0.00000000000E+00 0. -1.
       21   -1    0    0  501  504  0.00000000000E+00  0.00000000000E+00 -0.12034059290E+04  0.12034059290E+04  0.00000000000E+00 0. -1.
        6    2    1    2  501    0  0.10543930531E+02  0.13306037153E+02 -0.95714876966E+03  0.97276757250E+03  0.17278529377E+03 0.  0.
       24    2    3    3    0    0 -0.39212448201E+02 -0.15040087934E+02 -0.28836634779E+03  0.30152155364E+03  0.77435627660E+02 0.  0.
       -6    2    1    2    0  503 -0.10543930531E+02 -0.13306037153E+02 -0.20515616641E+03  0.27173934943E+03  0.17738375438E+03 0.  0.
      -24    2    5    5    0    0  0.29703994399E+01  0.57231678079E+02 -0.82504767154E+02  0.12952942670E+03  0.81771312383E+02 0.  0.
        5    1    3    3  501    0  0.49756378732E+02  0.28346125086E+02 -0.66878242187E+03  0.67124601886E+03  0.47000000000E+01 0. -1.
      -11    1    4    4    0    0 -0.80431952562E+01 -0.23320543698E+02 -0.21527946860E+02  0.32741307920E+02  0.00000000000E+00 0.  1.
       12    1    4    4    0    0 -0.31169252945E+02  0.82804557648E+01 -0.26683840093E+03  0.26878024572E+03  0.00000000000E+00 0. -1.
       -5    1    5    5    0  503 -0.13514329971E+02 -0.70537715232E+02 -0.12265139926E+03  0.14220992274E+03  0.47000000000E+01 0.  1.
        1    1    6    6  502    0  0.33599270365E+02  0.19575435535E+02 -0.68905249152E+02  0.79120427237E+02  0.00000000000E+00 0. -1.
       -2    1    6    6    0  502 -0.30628870926E+02  0.37656242544E+02 -0.13599518002E+02  0.50408999460E+02  0.00000000000E+00 0.  1.
</event>
<event>
12   0  0.1544783E-01  0.1797543E+03  0.7957747E-01  0.1173653E+00
       21   -1    0    0  501  503  0.00000000000E+00  0.00000000000E+00  0.16283434088E+03  0.16283434088E+03  0.00000000000E+00 0.  1.
       21   -1    0    0  503  504  0.00000000000E+00  0.00000000000E+00 -0.23050915890E+03  0.23050915890E+03  0.00000000000E+00 0.  1.
        6    2    1    2  501    0  0.17752743252E+02  0.43817315578E+02  0.39708756969E+02  0.18408799863E+03  0.17342574440E+03 0.  0.
       24    2    3    3    0    0  0.65630514756E+02  0.63731516031E+02  0.51318345424E+02  0.13074262462E+03  0.78044799396E+02 0.  0.
       -6    2    1    2    0  504 -0.17752743252E+02 -0.43817315578E+02 -0.10738357499E+03  0.20925550115E+03  0.17326717966E+03 0.  0.
      -24    2    5    5    0    0  0.17691462504E+02  0.22882314984E+02 -0.10238370452E+03  0.13341210233E+03  0.80497067735E+02 0.  0.
        5    1    3    3  501    0 -0.47877771504E+02 -0.19914200452E+02 -0.11609588455E+02  0.53345374007E+02  0.47000000000E+01 0. -1.
        2    1    4    4  502    0  0.32854627192E+02  0.29820388988E+01 -0.13881410859E+02  0.35791237075E+02  0.00000000000E+00 0. -1.
       -1    1    4    4    0  502  0.32775887564E+02  0.60749477132E+02  0.65199756283E+02  0.94951387545E+02  0.00000000000E+00 0.  1.
       -5    1    5    5    0  504 -0.35444205756E+02 -0.66699630563E+02 -0.49998704682E+01  0.75843398813E+02  0.47000000000E+01 0.  1.
       11    1    6    6    0    0 -0.21801565281E+02  0.29309003098E+02 -0.19574142148E+02  0.41442405240E+02  0.00000000000E+00 0. -1.
      -12    1    6    6    0    0  0.39493027785E+02 -0.64266881131E+01 -0.82809562370E+02  0.91969697094E+02  0.00000000000E+00 0.  1.
</event>
<event>
12   0  0.1544783E-01  0.2039179E+03  0.7957747E-01  0.1152830E+00
       -1   -1    0    0    0  501  0.00000000000E+00  0.00000000000E+00  0.23848762703E+03  0.23848762703E+03  0.00000000000E+00 0. -1.
        1   -1    0    0  502    0  0.00000000000E+00  0.00000000000E+00 -0.22505293853E+03  0.22505293853E+03  0.00000000000E+00 0.  1.
        6    2    1    2  502    0 -0.77455059421E+01 -0.10749802375E+03  0.11673649539E+03  0.23579121829E+03  0.17422477233E+03 0.  0.
       24    2    3    3    0    0  0.38779836601E+02 -0.11539242498E+02  0.88341815096E+02  0.12533288647E+03  0.79164551998E+02 0.  0.
       -6    2    1    2    0  501  0.77455059421E+01  0.10749802375E+03 -0.10330180689E+03  0.22774934728E+03  0.17199617410E+03 0.  0.
      -24    2    5    5    0    0 -0.15949979444E+01 -0.78328853265E+01 -0.14724681803E+02  0.81953391605E+02  0.80222465871E+02 0.  0.
        5    1    3    3  502    0 -0.46525342544E+02 -0.95958781257E+02  0.28394680291E+02  0.11045833182E+03  0.47000000000E+01 0. -1.
        2    1    4    4  503    0  0.16300606071E+02 -0.39918987549E+02  0.75450418835E+02  0.86902249841E+02  0.00000000000E+00 0. -1.
       -1    1    4    4    0  503  0.22479230530E+02  0.28379745051E+02  0.12891396261E+02  0.38430636632E+02  0.00000000000E+00 0.  1.
       -5    1    5    5    0  501  0.93405038865E+01  0.11533090908E+03 -0.88577125082E+02  0.14579595567E+03  0.47000000000E+01 0.  1.
       11    1    6    6    0    0  0.53436681061E+01 -0.32663015661E+02 -0.35725940087E+02  0.48700823155E+02  0.00000000000E+00 0. -1.
      -12    1    6    6    0    0 -0.69386660505E+01  0.24830130335E+02  0.21001258284E+02  0.33252568450E+02  0.00000000000E+00 0.  1.
</event>
<event>
12   0  0.1544783E-01  0.2372387E+03  0.7957747E-01  0.1128798E+00
       21   -1    0    0  504  503  0.00000000000E+00  0.00000000000E+00  0.32212461847E+03  0.32212461847E+03  0.00000000000E+00 0. -1.
       21   -1    0    0  501  504  0.00000000000E+00  0.00000000000E+00 -0.35264533140E+03  0.35264533140E+03  0.00000000000E+00 0.  1.
        6    2    1    2  501    0 -0.64430936270E+01 -0.16165272447E+03 -0.25508321527E+03  0.34835278368E+03  0.17351973491E+03 0.  0.
       24    2    3    3    0    0  0.11703693008E+02 -0.11961461931E+02 -0.12233057468E+03  0.14739972069E+03  0.80509969287E+02 0.  0.
       -6    2    1    2    0  503  0.64430936270E+01  0.16165272447E+03  0.22456250233E+03  0.32641716618E+03  0.17305124138E+03 0.  0.
      -24    2    5    5    0    0  0.37294379056E+02  0.15816579969E+03  0.12003442533E+03  0.21727428122E+03  0.79953480941E+02 0.  0.
        5    1    3    3  501    0 -0.18146786635E+02 -0.14969126254E+03 -0.13275264058E+03  0.20095306300E+03  0.47000000000E+01 0. -1.
      -13    1    4    4    0    0  0.38934362347E+02 -0.28902682328E+02 -0.58647166986E+02  0.76096910664E+02  0.00000000000E+00 0.  1.
       14    1    4    4    0    0 -0.27230669339E+02  0.16941220397E+02 -0.63683407699E+02  0.71302810024E+02  0.00000000000E+00 0. -1.
       -5    1    5    5    0  503 -0.30851285429E+02  0.34869247802E+01  0.10452807700E+03  0.10914288497E+03  0.47000000000E+01 0.  1.
        1    1    6    6  502    0  0.41763672552E+02  0.75001076263E+02  0.99657139589E+02  0.13153292841E+03  0.00000000000E+00 0. -1.
       -2    1    6    6    0  502 -0.44692934963E+01  0.83164723425E+02  0.20377285739E+02  0.85741352805E+02  0.00000000000E+00 0.  1.
</event>
<event>
12   0  0.1544783E-01  0.1753875E+03  0.7957747E-01  0.1177801E+00
       21   -1    0    0  504  503  0.00000000000E+00  0.00000000000E+00  0.73501759155E+03  0.73501759155E+03  0.00000000000E+00 0. -1.
       21   -1    0    0  501  504  0.00000000000E+00  0.00000000000E+00 -0.51690085459E+02  0.51690085459E+02  0.00000000000E+00 0. -1.
        6    2    1    2  501    0  0.11345604016E+02  0.52104453774E+01  0.16005910834E+03  0.23482852466E+03  0.17137574613E+03 0.  0.
       24    2    3    3    0    0 -0.51867611226E+02  0.33924986842E+02  0.90906644313E+02  0.13672353624E+03  0.81167441471E+02 0.  0.
       -6    2    1    2    0  503 -0.11345604016E+02 -0.52104453774E+01  0.52326839775E+03  0.55187915235E+03  0.17494259412E+03 0.  0.
      -24    2    5    5    0    0 -0.21387367341E+02  0.63876601725E+02  0.27087929618E+03  0.28997037877E+03  0.78546723233E+02 0.  0.
        5    1    3    3  501    0  0.63213215241E+02 -0.28714541464E+02  0.69152464024E+02  0.98104988422E+02  0.47000000000E+01 0. -1.
      -11    1    4    4    0    0  0.21855258753E+02  0.10591142151E+02  0.27796171955E+02  0.36911404776E+02  0.00000000000E+00 0.  1.
       12    1    4    4    0    0 -0.73722869978E+02  0.23333844691E+02  0.63110472358E+02  0.99812131463E+02  0.00000000000E+00 0. -1.
       -5    1    5    5    0  503  0.10041763325E+02 -0.69087047103E+02  0.25238910157E+03  0.26190877358E+03  0.47000000000E+01 0.  1.
        3    1    6    6  502    0  0.20649501411E+01  0.67653824117E+02  0.24769785050E+03  0.25677914456E+03  0.00000000000E+00 0. -1.
       -4    1    6    6    0  502 -0.23452317482E+02 -0.37772223920E+01  0.23181445681E+02  0.33191234206E+02  0.00000000000E+00 0.  1.
</event>
<event>
12   0  0.1544783E-01  0.1790788E+03  0.7957747E-01  0.1174286E+00
       -2   -1    0    0    0  501  0.00000000000E+00  0.00000000000E+00  0.32631483631E+02  0.32631483631E+02  0.00000000000E+00 0. -1.
        2   -1    0    0  502    0  0.00000000000E+00  0.00000000000E+00 -0.98279363047E+03  0.98279363047E+03  0.00000000000E+00 0.  1.
        6    2    1    2  502    0  0.88759118087E+01  0.46292876703E+02 -0.47730457717E+03  0.50975206916E+03  0.17264327493E+03 0.  0.
       24    2    3    3    0    0 -0.56760463756E+02  0.26305255225E+02 -0.35549488831E+03  0.36986879957E+03  0.80700660374E+02 0.  0.
       -6    2    1    2    0  501 -0.88759118087E+01 -0.46292876703E+02 -0.47285756967E+03  0.50567304494E+03  0.17288474469E+03 0.  0.
      -24    2    5    5    0    0  0.27925693944E+02 -0.53745536155E+02 -0.45073725062E+03  0.46184042200E+03  0.80399497905E+02 0.  0.
        5    1    3    3  502    0  0.65636375565E+02  0.19987621478E+02 -0.12180968887E+03  0.13988326959E+03  0.47000000000E+01 0. -1.
        2    1    4    4  503    0 -0.71660455927E+02  0.48978962784E+00 -0.26901207095E+03  0.27839352571E+03  0.00000000000E+00 0. -1.
       -1    1    4    4    0  503  0.14899992171E+02  0.25815465598E+02 -0.86482817352E+02  0.91475273861E+02  0.00000000000E+00 0.  1.
       -5    1    5    5    0  501 -0.36801605752E+02  0.74526594515E+01 -0.22120319051E+02  0.43832622940E+02  0.47000000000E+01 0.  1.
       13    1    6    6    0    0 -0.13742532714E+02  0.39523442906E+01 -0.16607265230E+02  0.21915279811E+02  0.00000000000E+00 0. -1.
      -14    1    6    6    0    0  0.41668226657E+02 -0.57697880445E+02 -0.43412998539E+03  0.43992514219E+03  0.00000000000E+00 0.  1.
</event>
<event>
12   0  0.1544783E-01  0.1752659E+03  0.7957747E-01  0.1177918E+00
       21   -1    0    0  504  503  0.00000000000E+00  0.00000000000E+00  0.18317076353E+03  0.18317076353E+03  0.00000000000E+00 0. -1.
       21   -1    0    0  501  504  0.00000000000E+00  0.00000000000E+00 -0.16748812141E+03  0.16748812141E+03  0.00000000000E+00 0. -1.
        6    2    1    2  501    0 -0.70244264725E+01 -0.21291495064E+02  0.96378800618E+01  0.17528878416E+03  0.17358167758E+03 0.  0.
       24    2    3    3    0    0 -0.41850956205E+02  0.42532852127E+02 -0.76834559712E+01  0.10039851010E+03  0.80375862604E+02 0.  0.
       -6    2    1    2    0  503  0.70244264725E+01  0.21291495064E+02  0.60447620568E+01  0.17537010077E+03  0.17382595539E+03 0.  0.
      -24    2    5    5    0    0 -0.39374357392E+02  0.73480796341E+01 -0.48834484047E+02  0.10201420373E+03  0.80110902102E+02 0.  0.
        5    1    3    3  501    0  0.34826529732E+02 -0.63824347191E+02  0.17321336033E+02  0.74890274065E+02  0.47000000000E+01 0. -1.
        4    1    4    4  502    0 -0.28781249548E+02  0.26148760261E+02 -0.43843634921E+02  0.58603603232E+02  0.00000000000E+00 0. -1.
       -3    1    4    4    0  502 -0.13069706657E+02  0.16384091866E+02  0.36160178950E+02  0.41794906868E+02  0.00000000000E+00 0.  1.
       -5    1    5    5    0  503  0.46398783864E+02  0.13943415430E+02  0.54879246103E+02  0.73355897042E+02  0.47000000000E+01 0.  1.
       13    1    6    6    0    0  0.10983766508E+02  0.31723987194E+02 -0.16721097074E+02  0.37505327322E+02  0.00000000000E+00 0. -1.
      -14    1    6    6    0    0 -0.50358123900E+02 -0.24375907560E+02 -0.32113386973E+02  0.64508876405E+02  0.00000000000E+00 0.  1.
</event>
<event>
12   0  0.1544783E-01  0.1753587E+03  0.7957747E-01  0.1177828E+00
       21   -1    0    0  501  503  0.00000000000E+00  0.00000000000E+00  0.38735558201E+03  0.38735558201E+03  0.00000000000E+00 0.  1.
       21   -1    0    0  503  504  0.00000000000E+00  0.00000000000E+00 -0.80266496963E+02  0.80266496963E+02  0.00000000000E+00 0.  1.
        6    2    1    2  501    0  0.22721035576E+02  0.16676630273E+02  0.12869637573E+03  0.21747283196E+03  0.17302404475E+03 0.  0.
       24    2    3    3    0    0 -0.53058848834E+02  0.10975124578E+02  0.45044518698E+02  0.10435863642E+03  0.76980656869E+02 0.  0.
       -6    2    1    2    0  504 -0.22721035576E+02 -0.16676630273E+02  0.17839270932E+03  0.25014924701E+03  0.17307897500E+03 0.  0.
      -24    2    5    5    0    0  0.45803462692E+02  0.20925549728E+02  0.77072424162E+02  0.12209683201E+03  0.80197518627E+02 0.  0.
        5    1    3    3  501    0  0.75779884410E+02  0.57015056947E+01  0.83651857029E+02  0.11311419554E+03  0.47000000000E+01 0. -1.
      -11    1    4    4    0    0 -0.27871819551E+02 -0.11302332678E+02 -0.16442822917E+02  0.34277506831E+02  0.00000000000E+00 0.  1.
       12    1    4    4    0    0 -0.25187029283E+02  0.22277457257E+02  0.61487341615E+02  0.70081129591E+02  0.00000000000E+00 0. -1.
       -5    1    5    5    0  504 -0.68524498268E+02 -0.37602180001E+02  0.10132028516E+03  0.12805241500E+03  0.47000000000E+01 0.  1.
        1    1    6    6  502    0  0.44173523204E+02  0.49307628706E+02  0.51788470582E+02  0.84051104014E+02  0.00000000000E+00 0. -1.
       -2    1    6    6    0  502  0.16299394884E+01 -0.28382078978E+02  0.25283953580E+02  0.38045727992E+02  0.00000000000E+00 0.  1.
</event>
<event>
12   0  0.1544783E-01  0.2074047E+03  0.7957747E-01  0.1150087E+00
       21   -1    0    0  501  503  0.00000000000E+00  0.00000000000E+00  0.25243979051E+03  0.25243979051E+03  0.00000000000E+00 0.  1.
       21   -1    0    0  503  504  0.00000000000E+00  0.00000000000E+00 -0.29017111385E+03  0.29017111385E+03  0.00000000000E+00 0.  1.
        6    2    1    2  501    0 -0.77584079202E+01 -0.11459884136E+03  0.15546082167E+03  0.25916797142E+03  0.17264669995E+03 0.  0.
       24    2    3    3    0    0  0.26617588832E+02 -0.12147946215E+03  0.65883631329E+02  0.16286005314E+03  0.81957234413E+02 0.  0.
       -6    2    1    2    0  504  0.77584079202E+01  0.11459884136E+03 -0.19319214501E+03  0.28344293294E+03  0.17269511866E+03 0.  0.
      -24    2    5    5    0    0  0.38467388698E+02  0.84649066204E+02 -0.20467525768E+03  0.23878890279E+03  0.80516921120E+02 0.  0.
        5    1    3    3  501    0 -0.34375996752E+02  0.68806207946E+01  0.89577190336E+02  0.96307918282E+02  0.47000000000E+01 0. -1.
        4    1    4    4  502    0  0.25646462613E+02 -0.10136094876E+03  0.11886614953E+02  0.10522867762E+03  0.00000000000E+00 0. -1.
       -3    1    4    4    0  502  0.97112621833E+00 -0.20118513390E+02  0.53997016377E+02  0.57631375524E+02  0.00000000000E+00 0.  1.
       -5    1    5    5    0  504 -0.30708980778E+02  0.29949775152E+02  0.11483112673E+02  0.44654030151E+02  0.47000000000E+01 0.  1.
       11    1    6    6    0    0 -0.11085250790E+02  0.29625859390E+01  0.14812434970E+01  0.11569519559E+02  0.00000000000E+00 0. -1.
      -12    1    6    6    0    0  0.49552639488E+02  0.81686480265E+02 -0.20615650118E+03  0.22721938323E+03  0.00000000000E+00 0.  1.
</event>
<event>
12   0  0.1544783E-01  0.3168348E+03  0.7957747E-01  0.1085541E+00
       21   -1    0    0  504  503  0.00000000000E+00  0.00000000000E+00  0.87726095076E+03  0.87726095076E+03  0.00000000000E+00 0.  1.
       21   -1    0    0  501  504  0.00000000000E+00  0.00000000000E+00 -0.11814427883E+03  0.11814427883E+03  0.00000000000E+00 0.  1.
        6    2    1    2  501    0 -0.19746777800E+03 -0.17758090890E+03  0.46902592896E+03  0.56601203801E+03  0.17278831726E+03 0.  0.
       24    2    3    3    0    0 -0.15517663073E+03 -0.10409726436E+03  0.42301251525E+03  0.46943196039E+03  0.80689219879E+02 0.  0.
       -6    2    1    2    0  503  0.19746777800E+03  0.17758090890E+03  0.29009074297E+03  0.42939319158E+03  0.17232925248E+03 0.  0.
      -24    2    5    5    0    0  0.14393283068E+03  0.15701051062E+03  0.29420683282E+03  0.37170294919E+03  0.78971271803E+02 0.  0.
        5    1    3    3  501    0 -0.42291147278E+02 -0.73483644534E+02  0.46013413713E+02  0.96580077623E+02  0.47000000000E+01 0. -1.
      -13    1    4    4    0    0 -0.10518134280E+03 -0.25308211301E+02  0.19374623351E+03  0.22190363547E+03  0.00000000000E+00 0.  1.
       14    1    4    4    0    0 -0.49995287924E+02 -0.78789053060E+02  0.22926628174E+03  0.24752832492E+03  0.00000000000E+00 0. -1.
       -5    1    5    5    0  503  0.53534947327E+02  0.20570398279E+02 -0.41160898476E+01  0.57690242383E+02  0.47000000000E+01 0.  1.
        1    1    6    6  502    0  0.78822880494E+02  0.37357330185E+02  0.14860367694E+03  0.17231270820E+03  0.00000000000E+00 0. -1.
       -2    1    6    6    0  502  0.65109950183E+02  0.11965318043E+03  0.14560315588E+03  0.19939024099E+03  0.00000000000E+00 0.  1.
</event>
<event>
12   0  0.1544783E-01  0.1816393E+03  0.7957747E-01  0.1171902E+00
       21   -1    0    0  504  503  0.00000000000E+00  0.00000000000E+00  0.81648104508E+03  0.81648104508E+03  0.00000000000E+00 0.  1.
       21   -1    0    0  501  504  0.00000000000E+00  0.00000000000E+00 -0.42791512948E+02  0.42791512948E+02  0.00000000000E+00 0. -1.
        6    2    1    2  501    0  0.55633037769E+02  0.59915830764E+01  0.28462931010E+03  0.33764876014E+03  0.17280598108E+03 0.  0.
       24    2    3    3    0    0  0.72433021893E+02  0.58499094706E+02  0.20370930100E+03  0.23962113079E+03  0.85159381540E+02 0.  0.
       -6    2    1    2    0  503 -0.55633037769E+02 -0.59915830764E+01  0.48906022203E+03  0.52162379789E+03  0.17257042559E+03 0.  0.
      -24    2    5    5    0    0 -0.93380696917E+02  0.18267314991E+02  0.42709125347E+03  0.44497118559E+03  0.80862648153E+02 0.  0.
        5    1    3    3  501    0 -0.16799984123E+02 -0.52507511630E+02  0.80920009101E+02  0.98027629355E+02  0.47000000000E+01 0. -1.
      -11    1    4    4    0    0  0.27908681019E+02  0.48316061229E+02  0.17940839367E+03  0.18788482634E+03  0.00000000000E+00 0.  1.
       12    1    4    4    0    0  0.44524340873E+02  0.10183033476E+02  0.24300907329E+02  0.51736304449E+02  0.00000000000E+00 0. -1.
       -5    1    5    5    0  503  0.37747659148E+02 -0.24258898067E+02  0.61968968567E+02  0.76652612296E+02  0.47000000000E+01 0.  1.
        1    1    6    6  502    0 -0.66325551917E+02 -0.10363410011E+02  0.14081952406E+03  0.15600197903E+03  0.00000000000E+00 0. -1.
       -2    1    6    6    0  502 -0.27055145000E+02  0.28630725002E+02  0.28627172941E+03  0.28896920656E+03  0.00000000000E+00 0.  1.
</event>
<event>
12   0  0.1544783E-01  0.2450566E+03  0.7957747E-01  0.1123779E+00
       21   -1    0    0  504  503  0.00000000000E+00  0.00000000000E+00  0.68520239303E+02  0.68520239303E+02  0.00000000000E+00 0.  1.
       21   -1    0    0  501  504  0.00000000000E+00  0.00000000000E+00 -0.89909910950E+03  0.89909910950E+03  0.00000000000E+00 0. -1.
        6    2    1    2  501    0 -0.11323008525E+03  0.13070177361E+03 -0.33119018360E+03  0.41134443599E+03  0.17208515764E+03 0.  0.
       24    2    3    3    0    0 -0.11254680534E+03  0.81023153365E+02 -0.32315515888E+03  0.36079659921E+03  0.80705604010E+02 0.  0.
       -6    2    1    2    0  503  0.11323008525E+03 -0.13070177361E+03 -0.49938868660E+03  0.55627491281E+03  0.17363384604E+03 0.  0.
      -24    2    5    5    0    0  0.91606253796E+02 -0.13976474901E+03 -0.28265476478E+03  0.33822581174E+03  0.81099277901E+02 0.  0.
        5    1    3    3  501    0 -0.68327991186E+00  0.49678620244E+02 -0.80350247128E+01  0.50547836778E+02  0.47000000000E+01 0. -1.
        2    1    4    4  502    0 -0.98001701676E+02  0.51358159992E+02 -0.30183642317E+03  0.32147662510E+03  0.00000000000E+00 0. -1.
       -1    1    4    4    0  502 -0.14545103660E+02  0.29664993373E+02 -0.21318735710E+02  0.39319974117E+02  0.00000000000E+00 0.  1.
       -5    1    5    5    0  503  0.21623831451E+02  0.90629753988E+01 -0.21673392182E+03  0.21804910107E+03  0.47000000000E+01 0.  1.
       13    1    6    6    0    0  0.24349055922E+02 -0.34386594896E+02 -0.15060260475E+03  0.15638560992E+03  0.00000000000E+00 0. -1.
      -14    1    6    6    0    0  0.67257197875E+02 -0.10537815411E+03 -0.13205216003E+03  0.18184020182E+03  0.00000000000E+00 0.  1.
</event>
<event>
12   0  0.1544783E-01  0.2010250E+03  0.7957747E-01  0.1155151E+00
       21   -1    0    0  501  503  0.00000000000E+00  0.00000000000E+00  0.15208179925E+03  0.15208179925E+03  0.00000000000E+00 0.  1.
       21   -1    0    0  503  504  0.00000000000E+00  0.00000000000E+00 -0.46001515657E+03  0.46001515657E+03  0.00000000000E+00 0.  1.
        6    2    1    2  501    0 -0.94449316026E+02 -0.39115626265E+02  0.45854661380E+02  0.20518541589E+03  0.17189444263E+03 0.  0.
       24    2    3    3    0    0 -0.52654469268E+02 -0.71285236943E+02 -0.19089264877E+02  0.12139104481E+03  0.80729843226E+02 0.  0.
       -6    2    1    2    0  504  0.94449316026E+02  0.39115626265E+02 -0.35378801870E+03  0.40691153993E+03  0.17309053596E+03 0.  0.
      -24    2    5    5    0    0  0.38743414689E+02  0.65940450153E+02 -0.31387880599E+03  0.33317176858E+03  0.81451380468E+02 0.  0.
        5    1    3    3  501    0 -0.41794846758E+02  0.32169610678E+02  0.64943926257E+02  0.83794371078E+02  0.47000000000E+01 0. -1.
        2    1    4    4  502    0 -0.40918617579E+01 -0.70480223443E+02 -0.47929461982E+01  0.70761412949E+02  0.00000000000E+00 0. -1.
       -1    1    4    4    0  502 -0.48562607510E+02 -0.80501349978E+00 -0.14296318679E+02  0.50629631864E+02  0.00000000000E+00 0.  1.
       -5    1    5    5    0  504  0.55705901337E+02 -0.26824823888E+02 -0.39909212710E+02  0.73739771356E+02  0.47000000000E+01 0.  1.
       13    1    6    6    0    0 -0.78938437581E+01  0.63842176745E+02 -0.16295918169E+03  0.17519655019E+03  0.00000000000E+00 0. -1.
      -14    1    6    6    0    0  0.46637258447E+02  0.20982734081E+01 -0.15091962429E+03  0.15797521838E+03  0.00000000000E+00 0.  1.
</event>
<event>
12   0  0.1544783E-01  0.1827946E+03  0.7957747E-01  0.1170840E+00
       21   -1    0    0  504  503  0.00000000000E+00  0.00000000000E+00  0.54716838176E+03  0.54716838176E+03  0.00000000000E+00 0.  1.
       21   -1    0    0  501  504  0.00000000000E+00  0.00000000000E+00 -0.62019792780E+02  0.62019792780E+02  0.00000000000E+00 0.  1.
        6    2    1    2  501    0 -0.49273294399E+02 -0.28978551483E+02  0.19386839624E+03  0.26530153012E+03  0.17184973912E+03 0.  0.
       24    2    3    3    0    0 -0.57037928907E+02 -0.78901865069E+02  0.16070199404E+03  0.20468200337E+03  0.81183507988E+02 0.  0.
       -6    2    1    2    0  503  0.49273294399E+02  0.28978551483E+02  0.29128019274E+03  0.34388664442E+03  0.17362678233E+03 0.  0.
      -24    2    5    5    0    0 -0.65421519653E+00  0.63864529482E+02  0.25250394769E+03  0.27153006313E+03  0.76754318853E+02 0.  0.
        5    1    3    3  501    0  0.77646345081E+01  0.49923313586E+02  0.33166402198E+02  0.60619526749E+02  0.47000000000E+01 0. -1.
      -13    1    4    4    0    0  0.64554638028E+01 -0.60236034742E+02  0.75922378872E+02  0.97130121528E+02  0.00000000000E+00 0.  1.
       14    1    4    4    0    0 -0.63493392710E+02 -0.18665830327E+02  0.84779615170E+02  0.10755188184E+03  0.00000000000E+00 0. -1.
       -5    1    5    5    0  503  0.49927509596E+02 -0.34885977999E+02  0.38776245048E+02  0.72356581286E+02  0.47000000000E+01 0.  1.
        3    1    6    6  502    0 -0.29560755445E+02  0.49708045594E+02  0.98713658909E+02  0.11440766808E+03  0.00000000000E+00 0. -1.
       -4    1    6    6    0  502  0.28906540249E+02  0.14156483888E+02  0.15379028878E+03  0.15712239506E+03  0.00000000000E+00 0.  1.
</event>
<event>
12   0  0.1544783E-01  0.1902029E+03  0.7957747E-01  0.1164232E+00
       21   -1    0    0  504  503  0.00000000000E+00  0.00000000000E+00  0.77564408592E+02  0.77564408592E+02  0.00000000000E+00 0.  1.
       21   -1    0    0  501  504  0.00000000000E+00  0.00000000000E+00 -0.44631034370E+03  0.44631034370E+03  0.00000000000E+00 0.  1.
        6    2    1    2  501    0 -0.61357913752E+02  0.45343249789E+02 -0.21390974004E+03  0.27861693004E+03  0.16139768566E+03 0.  0.
       24    2    3    3    0    0 -0.73049073457E+02  0.81135980668E+02 -0.14132393455E+03  0.19671093540E+03  0.82483471899E+02 0.  0.
       -6    2    1    2    0  503  0.61357913752E+02 -0.45343249789E+02 -0.15483619507E+03  0.24525782225E+03  0.17423073263E+03 0.  0.
      -24    2    5    5    0    0  0.65286172539E+02 -0.64999024925E+02 -0.17722303862E+03  0.21484332772E+03  0.79135911456E+02 0.  0.
        5    1    3    3  501    0  0.11691159704E+02 -0.35792730879E+02 -0.72585805490E+02  0.81905994638E+02  0.47000000000E+01 0. -1.
      -13    1    4    4    0    0 -0.25832273642E+02  0.61246113115E+02 -0.12727065625E+03  0.14358346937E+03  0.00000000000E+00 0.  1.
       14    1    4    4    0    0 -0.47216799815E+02  0.19889867553E+02 -0.14053278303E+02  0.53127466033E+02  0.00000000000E+00 0. -1.
       -5    1    5    5    0  503 -0.39282587871E+01  0.19655775137E+02  0.22386843556E+02  0.30414494533E+02  0.47000000000E+01 0.  1.
        1    1    6    6  502    0 -0.11055007079E+02 -0.36929301055E+02 -0.73862303701E+02  0.83316423147E+02  0.00000000000E+00 0. -1.
       -2    1    6    6    0  502  0.76341179618E+02 -0.28069723870E+02 -0.10336073492E+03  0.13152690458E+03  0.00000000000E+00 0.  1.
</event>
<event>
12   0  0.1544783E-01  0.1978641E+03  0.7957747E-01  0.1157738E+00
       21   -1    0    0  501  503  0.00000000000E+00  0.00000000000E+00  0.21418965512E+03  0.21418965512E+03  0.00000000000E+00 0. -1.
       21   -1    0    0  503  504  0.00000000000E+00  0.00000000000E+00 -0.26356263587E+03  0.26356263587E+03  0.00000000000E+00 0.  1.
        6    2    1    2  501    0 -0.93088506183E+02 -0.20428180696E+02  0.11118684060E+03  0.22696409857E+03  0.17339956161E+03 0.  0.
       24    2    3    3    0    0 -0.91866950478E+01 -0.25919675813E+02 -0.22484257094E+01  0.85686640807E+02  0.81122869984E+02 0.  0.
       -6    2    1    2    0  504  0.93088506183E+02  0.20428180696E+02 -0.16055982135E+03  0.25078819242E+03  0.16742903177E+03 0.  0.
      -24    2    5    5    0    0  0.10372594280E+03 -0.27232956229E+02 -0.77875881265E+02  0.15464526248E+03  0.79685627370E+02 0.  0.
        5    1    3    3  501    0 -0.83901811135E+02  0.54914951165E+01  0.11343526631E+03  0.14127745776E+03  0.47000000000E+01 0. -1.
      -13    1    4    4    0    0 -0.36179504707E+01 -0.23994748125E+02  0.37957550428E+02  0.45051227926E+02  0.00000000000E+00 0.  1.
       14    1    4    4    0    0 -0.55687445771E+01 -0.19249276881E+01 -0.40205976138E+02  0.40635412880E+02  0.00000000000E+00 0. -1.
       -5    1    5    5    0  504 -0.10637436619E+02  0.47661136926E+02 -0.82683940083E+02  0.96142929946E+02  0.47000000000E+01 0.  1.
        1    1    6    6  502    0  0.11147473933E+03 -0.74512947349E+01 -0.70730573940E+02  0.13223068249E+03  0.00000000000E+00 0. -1.
       -2    1    6    6    0  502 -0.77487965320E+01 -0.19781661494E+02 -0.71453073248E+01  0.22414579986E+02  0.00000000000E+00 0.  1.
</event>
<event>
12   0  0.1544783E-01  0.1744644E+03  0.7957747E-01  0.1178695E+00
       21   -1    0    0  504  503  0.00000000000E+00  0.00000000000E+00  0.11469914207E+03  0.11469914207E+03  0.00000000000E+00 0.  1.
       21   -1    0    0  501  504  0.00000000000E+00  0.00000000000E+00 -0.26973926583E+03  0.26973926583E+03  0.00000000000E+00 0.  1.
        6    2    1    2  501    0 -0.17425921996E+02  0.17203703854E+02 -0.10474624816E+03  0.20349349907E+03  0.17273736560E+03 0.  0.
       24    2    3    3    0    0  0.30777371418E+02  0.28261246450E+02 -0.35402776568E+01  0.90752356579E+02  0.80482992094E+02 0.  0.
       -6    2    1    2    0  503  0.17425921996E+02 -0.17203703854E+02 -0.50293875590E+02  0.18094490883E+03  0.17208124804E+03 0.  0.
      -24    2    5    5    0    0  0.59740321677E+02  0.34656496936E+02 -0.24114343645E+02  0.10892097712E+03  0.80698815808E+02 0.  0.
        5    1    3    3  501    0 -0.48203293414E+02 -0.11057542596E+02 -0.10120597051E+03  0.11274114249E+03  0.47000000000E+01 0. -1.
        4    1    4    4  502    0  0.76967960265E+01  0.33012929349E+02  0.32976698131E+02  0.47292248762E+02  0.00000000000E+00 0. -1.
       -3    1    4    4    0  502  0.23080575391E+02 -0.47516828989E+01 -0.36516975788E+02  0.43460107817E+02  0.00000000000E+00 0.  1.
       -5    1    5    5    0  503 -0.42314399681E+02 -0.51860200790E+02 -0.26179531945E+02  0.72023931712E+02  0.47000000000E+01 0.  1.
       13    1    6    6    0    0  0.48258597601E+02 -0.12290175661E+02 -0.33054499411E+02  0.59770733570E+02  0.00000000000E+00 0. -1.
      -14    1    6    6    0    0  0.11481724076E+02  0.46946672596E+02  0.89401557662E+01  0.49150243547E+02  0.00000000000E+00 0.  1.
</event>
<event>
12   0  0.1544783E-01  0.2723513E+03  0.7957747E-01  0.1107739E+00
       -2   -1    0    0    0  501  0.00000000000E+00  0.00000000000E+00  0.86785483194E+02  0.86785483194E+02  0.00000000000E+00 0.  1.
        2   -1    0    0  502    0  0.00000000000E+00  0.00000000000E+00 -0.93212308547E+03  0.93212308547E+03  0.00000000000E+00 0. -1.
        6    2    1    2  502    0  0.34407617838E+02  0.20767039404E+03 -0.56966418918E+03  0.63147133032E+03  0.17299675101E+03 0.  0.
       24    2    3    3    0    0  0.19685905857E+02  0.23135983507E+03 -0.51175828147E+03  0.56702676059E+03  0.75550647914E+02 0.  0.
       -6    2    1    2    0  501 -0.34407617838E+02 -0.20767039404E+03 -0.27567341309E+03  0.38743723834E+03  0.17262938985E+03 0.  0.
      -24    2    5    5    0    0 -0.26378718132E+02 -0.37640855908E+02 -0.15083491548E+03  0.17629451989E+03  0.78841075666E+02 0.  0.
        5    1    3    3  502    0  0.14721711981E+02 -0.23689441034E+02 -0.57905907710E+02  0.64444569732E+02  0.47000000000E+01 0. -1.
        4    1    4    4  503    0 -0.26520899074E+02  0.53070102229E+02 -0.14343855821E+03  0.15522375405E+03  0.00000000000E+00 0. -1.
       -3    1    4    4    0  503  0.46206804931E+02  0.17828973284E+03 -0.36831972326E+03  0.41180300654E+03  0.00000000000E+00 0.  1.
       -5    1    5    5    0  501 -0.80288997059E+01 -0.17002953813E+03 -0.12483849761E+03  0.21114271845E+03  0.47000000000E+01 0.  1.
       11    1    6    6    0    0 -0.29815472646E+02 -0.58525456315E+02 -0.13406607161E+03  0.14929133600E+03  0.00000000000E+00 0. -1.
      -12    1    6    6    0    0  0.34367545144E+01  0.20884600407E+02 -0.16768843865E+02  0.27003183893E+02  0.00000000000E+00 0.  1.
</event>
<event>
12   0  0.1544783E-01  0.2118171E+03  0.7957747E-01  0.1146699E+00
        2   -1    0    0  502    0  0.00000000000E+00  0.00000000000E+00  0.15385370132E+04  0.15385370132E+04  0.00000000000E+00 0. -1.
       -2   -1    0    0    0  501  0.00000000000E+00  0.00000000000E+00 -0.39524413626E+02  0.39524413626E+02  0.00000000000E+00 0.  1.
        6    2    1    2  502    0 -0.11207633278E+03 -0.31504719947E+01  0.11672742196E+04  0.11873347648E+04  0.18618192764E+03 0.  0.
       24    2    3    3    0    0 -0.30647867609E+02 -0.52343858219E+02  0.23623383940E+03  0.25143473611E+03  0.61105060044E+02 0.  0.
       -6    2    1    2    0  501  0.11207633278E+03  0.31504719947E+01  0.33173837992E+03  0.39072666195E+03  0.17333765258E+03 0.  0.
      -24    2    5    5    0    0  0.50753002258E+02 -0.64446015906E+02  0.20305947377E+03  0.23289704834E+03  0.79238431544E+02 0.  0.
        5    1    3    3  502    0 -0.81428465170E+02  0.49193386224E+02  0.93104038022E+03  0.93590002874E+03  0.47000000000E+01 0. -1.
        2    1    4    4  503    0 -0.36437084921E+02 -0.25216649219E+02  0.20468268276E+03  0.20942430894E+03  0.00000000000E+00 0. -1.
       -1    1    4    4    0  503  0.57892173123E+01 -0.27127209000E+02  0.31551156636E+02  0.42010427161E+02  0.00000000000E+00 0.  1.
       -5    1    5    5    0  501  0.61323330521E+02  0.67596487901E+02  0.12867890615E+03  0.15782961360E+03  0.47000000000E+01 0.  1.
       13    1    6    6    0    0  0.91018447928E+01 -0.47712144942E+02  0.17092664828E+03  0.17769415141E+03  0.00000000000E+00 0. -1.
      -14    1    6    6    0    0  0.41651157465E+02 -0.16733870964E+02  0.32132825497E+02  0.55202896936E+02  0.00000000000E+00 0.  1.
</event>
<event>
12   0  0.1544783E-01  0.2376429E+03  0.7957747E-01  0.1128533E+00
       -2   -1    0    0    0  501  0.00000000000E+00  0.00000000000E+00  0.19882569379E+03  0.19882569379E+03  0.00000000000E+00 0. -1.
        2   -1    0    0  502    0  0.00000000000E+00  0.00000000000E+00 -0.42232850946E+03  0.42232850946E+03  0.00000000000E+00 0.  1.
        6    2    1    2  502    0 -0.12311361115E+03  0.10685904966E+03  0.65729621049E+02  0.24729163618E+03  0.17394525718E+03 0.  0.
       24    2    3    3    0    0 -0.69232352543E+02  0.13759231738E+03  0.32394561987E+02  0.17671515329E+03  0.80337247381E+02 0.  0.
       -6    2    1    2    0  501  0.12311361115E+03 -0.10685904966E+03 -0.28923243672E+03  0.37386256707E+03  0.17187786030E+03 0.  0.
      -24    2    5    5    0    0  0.96309796835E+02 -0.33911394585E+02 -0.85051168763E+02  0.15534052007E+03  0.80445113075E+02 0.  0.
        5    1    3    3  502    0 -0.53881258608E+02 -0.30733267718E+02  0.33335059062E+02  0.70576482885E+02  0.47000000000E+01 0. -1.
      -13    1    4    4    0    0  0.10876022703E+02  0.54161671952E+00 -0.72646045228E+01  0.13090290195E+02  0.00000000000E+00 0.  1.
       14    1    4    4    0    0 -0.80108375245E+02  0.13705070066E+03  0.39659166510E+02  0.16362486310E+03  0.00000000000E+00 0. -1.
       -5    1    5    5    0  501  0.26803814316E+02 -0.72947655078E+02 -0.20418126796E+03  0.21852204701E+03  0.47000000000E+01 0.  1.
        3    1    6    6  503    0  0.33631712653E+02 -0.19423465064E+02  0.10426292587E+02  0.40212817213E+02  0.00000000000E+00 0. -1.
       -4    1    6    6    0  503  0.62678084182E+02 -0.14487929521E+02 -0.95477461351E+02  0.11512770285E+03  0.00000000000E+00 0.  1.
</event>
<event>
12   0  0.1544783E-01  0.1823752E+03  0.7957747E-01  0.1171225E+00
       21   -1    0    0  501  503  0.00000000000E+00  0.00000000000E+00  0.86105341388E+03  0.86105341388E+03  0.00000000000E+00 0. -1.
       21   -1    0    0  503  504  0.00000000000E+00  0.00000000000E+00 -0.85643574742E+02  0.85643574742E+02  0.00000000000E+00 0. -1.
        6    2    1    2  501    0  0.54793630885E+02 -0.21925981407E+02  0.73862354993E+03  0.76064877527E+03  0.17186832216E+03 0.  0.
       24    2    3    3    0    0  0.93740966425E+01  0.29923404146E+02  0.19758621269E+03  0.21521795183E+03  0.79342117065E+02 0.  0.
       -6    2    1    2    0  504 -0.54793630885E+02  0.21925981407E+02  0.36786289204E+02  0.18604821335E+03  0.17256191924E+03 0.  0.
      -24    2    5    5    0    0 -0.25647554952E+02 -0.28812265741E+02 -0.32495210094E+02  0.95241387554E+02  0.80790095259E+02 0.  0.
        5    1    3    3  501    0  0.45419534242E+02 -0.51849385554E+02  0.54103733724E+03  0.54543082344E+03  0.47000000000E+01 0. -1.
      -11    1    4    4    0    0 -0.15301179590E+02  0.50753806232E+02  0.12105268622E+03  0.13215077671E+03  0.00000000000E+00 0.  1.
       12    1    4    4    0    0  0.24675276233E+02 -0.20830402086E+02  0.76533526475E+02  0.83067175123E+02  0.00000000000E+00 0. -1.
       -5    1    5    5    0  504 -0.29146075933E+02  0.50738247149E+02  0.69281499298E+02  0.90806825795E+02  0.47000000000E+01 0.  1.
        1    1    6    6  502    0 -0.51991025945E+02 -0.26271460697E+02 -0.36100804211E+02  0.68531193560E+02  0.00000000000E+00 0. -1.
       -2    1    6    6    0  502  0.26343470994E+02 -0.25408050439E+01  0.36055941174E+01  0.26710193994E+02  0.00000000000E+00 0.  1.
</event>
<event>
12   0  0.1544783E-01  0.1980371E+03  0.7957747E-01  0.1157595E+00
        3   -1    0    0  502    0  0.00000000000E+00  0.00000000000E+00  0.31435236878E+03  0.31435236878E+03  0.00000000000E+00 0.  1.
       -3   -1    0    0    0  501  0.00000000000E+00  0.00000000000E+00 -0.12531819846E+03  0.12531819846E+03  0.00000000000E+00 0. -1.
        6    2    1    2  502    0  0.65940838196E+02 -0.50735791511E+02  0.85506867320E+02  0.22235254537E+03  0.18763505907E+03 0.  0.
       24    2    3    3    0    0  0.82662990812E+02 -0.42313581377E+01  0.11694576299E+03  0.16359212610E+03  0.78962002259E+02 0.  0.
       -6    2    1    2    0  501 -0.65940838196E+02  0.50735791511E+02  0.10352730299E+03  0.21731802187E+03  0.17200844596E+03 0.  0.
      -24    2    5    5    0    0 -0.64204336156E+02 -0.31854372341E+02  0.65657538233E+02  0.12632154014E+03  0.80680365380E+02 0.  0.
        5    1    3    3  502    0 -0.16722152617E+02 -0.46504433373E+02 -0.31438895669E+02  0.58760419266E+02  0.47000000000E+01 0. -1.
      -11    1    4    4    0    0  0.59059453876E+01  0.28669473597E+02  0.43185418292E+02  0.52170866010E+02  0.00000000000E+00 0.  1.
       12    1    4    4    0    0  0.76757045425E+02 -0.32900831735E+02  0.73760344697E+02  0.11142126009E+03  0.00000000000E+00 0. -1.
       -5    1    5    5    0  501 -0.17365020393E+01  0.82590163852E+02  0.37869764758E+02  0.90996481730E+02  0.47000000000E+01 0.  1.
        3    1    6    6  503    0 -0.37297305197E+02 -0.12446337436E+01 -0.11510322386E+02  0.39052856612E+02  0.00000000000E+00 0. -1.
       -4    1    6    6    0  503 -0.26907030959E+02 -0.30609738598E+02  0.77167860619E+02  0.87268683527E+02  0.00000000000E+00 0.  1.
</event>
<event>
12   0  0.1544783E-01  0.1953173E+03  0.7957747E-01  0.1159860E+00
       21   -1    0    0  501  503  0.00000000000E+00  0.00000000000E+00  0.75632451830E+02  0.75632451830E+02  0.00000000000E+00 0. -1.
       21   -1    0    0  503  504  0.00000000000E+00  0.00000000000E+00 -0.53669480725E+03  0.53669480725E+03  0.00000000000E+00 0. -1.
        6    2    1    2  501    0  0.66840298054E+02 -0.59686352769E+02 -0.15125859110E+03  0.24703846894E+03  0.17354756582E+03 0.  0.
       24    2    3    3    0    0  0.68830027387E+02  0.23457192702E+02 -0.12438778766E+03  0.15951168302E+03  0.68438605624E+02 0.  0.
       -6    2    1    2    0  504 -0.66840298054E+02  0.59686352769E+02 -0.30980376432E+03  0.36528879014E+03  0.17154428485E+03 0.  0.
      -24    2    5    5    0    0  0.18930825718E+02  0.59690968920E+02 -0.21088349580E+03  0.23427735851E+03  0.80576944441E+02 0.  0.
        5    1    3    3  501    0 -0.19897293331E+01 -0.83143545471E+02 -0.26870803435E+02  0.87526785920E+02  0.47000000000E+01 0. -1.
      -13    1    4    4    0    0  0.61064000556E+02  0.40269502650E+02 -0.66942938913E+02  0.99155444016E+02  0.00000000000E+00 0.  1.
       14    1    4    4    0    0  0.77660268308E+01 -0.16812309949E+02 -0.57444848748E+02  0.60356239000E+02  0.00000000000E+00 0. -1.
       -5    1    5    5    0  504 -0.85771123772E+02 -0.46161507649E-02 -0.98920268519E+02  0.13101143163E+03  0.47000000000E+01 0.  1.
        1    1    6    6  502    0 -0.29245584432E+02  0.35608784907E+02 -0.12119542846E+03  0.12965963771E+03  0.00000000000E+00 0. -1.
       -2    1    6    6    0  502  0.48176410151E+02  0.24082184012E+02 -0.89688067343E+02  0.10461772080E+03  0.00000000000E+00 0.  1.
</event>
<event>
12   0  0.1544783E-01  0.2029529E+03  0.7957747E-01  0.1153599E+00
       21   -1    0    0  501  503  0.00000000000E+00  0.00000000000E+00  0.50320131537E+03  0.50320131537E+03  0.00000000000E+00 0.  1.
       21   -1    0    0  503  504  0.00000000000E+00  0.00000000000E+00 -0.87685627420E+02  0.87685627420E+02  0.00000000000E+00 0.  1.
        6    2    1    2  501    0  0.10291660800E+03 -0.24847699974E+02  0.28436664436E+03  0.34936267784E+03  0.17314922999E+03 0.  0.
       24    2    3    3    0    0  0.24713574710E+02 -0.70323380535E+02  0.12728710770E+03  0.16803473521E+03  0.80483077897E+02 0.  0.
       -6    2    1    2    0  504 -0.10291660800E+03  0.24847699974E+02  0.13114904358E+03  0.24152426494E+03  0.17298746350E+03 0.  0.
      -24    2    5    5    0    0 -0.95147824098E+01  0.18250599096E+02  0.30746951776E+01  0.82802648636E+02  0.80144927594E+02 0.  0.
        5    1    3    3  501    0  0.78203033292E+02  0.45475680561E+02  0.15707953667E+03  0.18132794263E+03  0.47000000000E+01 0. -1.
        2    1    4    4  502    0  0.42944905907E+01 -0.29806513980E+02 -0.28175788612E+01  0.30245820798E+02  0.00000000000E+00 0. -1.
       -1    1    4    4    0  502  0.20419084119E+02 -0.40516866555E+02  0.13010468656E+03  0.13778891441E+03  0.00000000000E+00 0.  1.
       -5    1    5    5    0  504 -0.93401825592E+02  0.65971008782E+01  0.12807434841E+03  0.15872161631E+03  0.47000000000E+01 0.  1.
       11    1    6    6    0    0  0.15694513243E+01 -0.25127543118E+02  0.22717986592E+02  0.33911111975E+02  0.00000000000E+00 0. -1.
      -12    1    6    6    0    0 -0.11084233734E+02  0.43378142214E+02 -0.19643291414E+02  0.48891536660E+02  0.00000000000E+00 0.  1.
</event>
<event>
12   0  0.1544783E-01  0.2369599E+03  0.7957747E-01  0.1128981E+00
       21   -1    0    0  501  503  0.00000000000E+00  0.00000000000E+00  0.11959712239E+03  0.11959712239E+03  0.00000000000E+00 0.  1.
       21   -1    0    0  503  504  0.00000000000E+00  0.00000000000E+00 -0.49021806247E+03  0.49021806247E+03  0.00000000000E+00 0.  1.
        6    2    1    2  501    0 -0.13403685515E+03 -0.79651815895E+02 -0.25739895706E+03  0.34719528908E+03  0.17314749594E+03 0.  0.
       24    2    3    3    0    0 -0.60050745972E+02 -0.52713114191E+02 -0.24192620164E+03  0.26681410869E+03  0.79225734814E+02 0.  0.
       -6    2    1    2    0  504  0.13403685515E+03  0.79651815895E+02 -0.11322198302E+03  0.26261989578E+03  0.17843682889E+03 0.  0.
      -24    2    5    5    0    0  0.48752520464E+02 -0.19374738958E+02  0.38639940055E+01  0.87089578384E+02  0.69408035933E+02 0.  0.
        5    1    3    3  501    0 -0.73986109178E+02 -0.26938701704E+02 -0.15472755425E+02  0.80381180392E+02  0.47000000000E+01 0. -1.
        4    1    4    4  502    0 -0.16051890433E+01 -0.35952674290E+02 -0.16438137527E+03  0.16827479894E+03  0.00000000000E+00 0. -1.
       -3    1    4    4    0  502 -0.58445556929E+02 -0.16760439901E+02 -0.77544826364E+02  0.98539309751E+02  0.00000000000E+00 0.  1.
       -5    1    5    5    0  504  0.85284334686E+02  0.99026554853E+02 -0.11708597702E+03  0.17553031739E+03  0.47000000000E+01 0.  1.
       13    1    6    6    0    0  0.24403118228E+02 -0.32366837481E+02 -0.24621399225E+02  0.47427182581E+02  0.00000000000E+00 0. -1.
      -14    1    6    6    0    0  0.24349402236E+02  0.12992098523E+02  0.28485393231E+02  0.39662395803E+02  0.00000000000E+00 0.  1.
</event>
<event>
12   0  0.1544783E-01  0.1741723E+03  0.7957747E-01  0.1178979E+00
       21   -1    0    0  501  503  0.00000000000E+00  0.00000000000E+00  0.20695053921E+03  0.20695053921E+03  0.00000000000E+00 0.  1.
       21   -1    0    0  503  504  0.00000000000E+00  0.00000000000E+00 -0.14632645896E+03  0.14632645896E+03  0.00000000000E+00 0.  1.
        6    2    1    2  501    0  0.96272722820E+01 -0.11500207109E+02  0.25677258218E+02  0.17605489797E+03  0.17352540556E+03 0.  0.
       24    2    3    3    0    0 -0.55466882171E+02 -0.96143214575E+01 -0.20851744527E+02  0.95881064306E+02  0.74762109706E+02 0.  0.
       -6    2    1    2    0  504 -0.96272722820E+01  0.11500207109E+02  0.34946822034E+02  0.17722210020E+03  0.17309377023E+03 0.  0.
      -24    2    5    5    0    0  0.63107297897E+02  0.86278059437E+01  0.28986203759E+02  0.10403612232E+03  0.76982755574E+02 0.  0.
        5    1    3    3  501    0  0.65094154453E+02 -0.18858856512E+01  0.46529002745E+02  0.80173833668E+02  0.47000000000E+01 0. -1.
        4    1    4    4  502    0 -0.45344887058E+02  0.28748774066E+02 -0.87356236243E+01  0.54396340986E+02  0.00000000000E+00 0. -1.
       -3    1    4    4    0  502 -0.10121995113E+02 -0.38363095523E+02 -0.12116120903E+02  0.41484723320E+02  0.00000000000E+00 0.  1.
       -5    1    5    5    0  504 -0.72734570179E+02  0.28724011650E+01  0.59606182748E+01  0.73185977877E+02  0.47000000000E+01 0.  1.
       13    1    6    6    0    0  0.26956373410E+02 -0.19310512448E+02 -0.18639254175E+02  0.38038976782E+02  0.00000000000E+00 0. -1.
      -14    1    6    6    0    0  0.36150924487E+02  0.27938318391E+02  0.47625457934E+02  0.65997145538E+02  0.00000000000E+00 0.  1.
</event>
<event>
12   0  0.1544783E-01  0.2222480E+03  0.7957747E-01  0.1139038E+00
        1   -1    0    0  502    0  0.00000000000E+00  0.00000000000E+00  0.16614377226E+03  0.16614377226E+03  0.00000000000E+00 0. -1.
       -1   -1    0    0    0  501  0.00000000000E+00  0.00000000000E+00 -0.31231205383E+03  0.31231205383E+03  0.00000000000E+00 0.  1.
        6    2    1    2  502    0  0.64746406500E+01  0.13991895003E+03 -0.20511353304E+02  0.22280613813E+03  0.17205413690E+03 0.  0.
       24    2    3    3    0    0 -0.46124973146E+02  0.70006719484E+02 -0.53838735437E+02  0.12906583863E+03  0.82042229041E+02 0.  0.
       -6    2    1    2    0  501 -0.64746406500E+01 -0.13991895003E+03 -0.12565692827E+03  0.25564968796E+03  0.17305451680E+03 0.  0.
      -24    2    5    5    0    0  0.89102986197E+01 -0.56173266393E+01 -0.75356055790E+02  0.11133790683E+03  0.81281280584E+02 0.  0.
        5    1    3    3  502    0  0.52599613796E+02  0.69912230542E+02  0.33327382133E+02  0.93740299502E+02  0.47000000000E+01 0. -1.
        4    1    4    4  503    0 -0.67454429793E+02  0.61849592046E+02 -0.30632905727E+02  0.96508274506E+02  0.00000000000E+00 0. -1.
       -3    1    4    4    0  503  0.21329456646E+02  0.81571274378E+01 -0.23205829710E+02  0.32557564119E+02  0.00000000000E+00 0.  1.
       -5    1    5    5    0  501 -0.15384939270E+02 -0.13430162339E+03 -0.50300872482E+02  0.14431178113E+03  0.47000000000E+01 0.  1.
       13    1    6    6    0    0 -0.74468284012E+01 -0.15142673877E+02  0.12795287131E+02  0.21177233014E+02  0.00000000000E+00 0. -1.
      -14    1    6    6    0    0  0.16357127021E+02  0.95253472374E+01 -0.88151342921E+02  0.90160673817E+02  0.00000000000E+00 0.  1.
</event>
<event>
12   0  0.1544783E-01  0.1947860E+03  0.7957747E-01  0.1160308E+00
       21   -1    0    0  501  503  0.00000000000E+00  0.00000000000E+00  0.10701726404E+03  0.10701726404E+03  0.00000000000E+00 0.  1.
       21   -1    0    0  503  504  0.00000000000E+00  0.00000000000E+00 -0.40105502456E+03  0.40105502456E+03  0.00000000000E+00 0. -1.
        6    2    1    2  501    0  0.21659582374E+02 -0.86761907588E+02 -0.23420651156E+03  0.30430432462E+03  0.17248671197E+03 0.  0.
       24    2    3    3    0    0 -0.24971393345E+02 -0.66074700462E+01 -0.17357915681E+03  0.19341272035E+03  0.81311300358E+02 0.  0.
       -6    2    1    2    0  504 -0.21659582374E+02  0.86761907588E+02 -0.59831248963E+02  0.20376796398E+03  0.17304577047E+03 0.  0.
      -24    2    5    5    0    0 -0.62295542779E+01  0.68910519377E+02  0.31362678476E+02  0.10945370085E+03  0.78797385755E+02 0.  0.
        5    1    3    3  501    0  0.46630975719E+02 -0.80154437542E+02 -0.60627354749E+02  0.11089160427E+03  0.47000000000E+01 0. -1.
        4    1    4    4  502    0  0.15988317659E+02  0.14868770305E+02 -0.12281280983E+03  0.12473849802E+03  0.00000000000E+00 0. -1.
       -3    1    4    4    0  502 -0.40959711004E+02 -0.21476240351E+02 -0.50766346986E+02  0.68674222321E+02  0.00000000000E+00 0.  1.
       -5    1    5    5    0  504 -0.15430028096E+02  0.17851388212E+02 -0.91193927439E+02  0.94314263130E+02  0.47000000000E+01 0.  1.
       11    1    6    6    0    0  0.21905051376E+02 -0.53124520339E+01 -0.34070829798E+01  0.22796088192E+02  0.00000000000E+00 0. -1.
      -12    1    6    6    0    0 -0.28134605654E+02  0.74222971410E+02  0.34769761455E+02  0.86657612660E+02  0.00000000000E+00 0.  1.
</event>
<event>
12   0  0.1544783E-01  0.2994680E+03  0.7957747E-01  0.1093707E+00
       21   -1    0    0  504  503  0.00000000000E+00  0.00000000000E+00  0.13551216142E+03  0.13551216142E+03  0.00000000000E+00 0.  1.
       21   -1    0    0  501  504  0.00000000000E+00  0.00000000000E+00 -0.66322302829E+03  0.66322302829E+03  0.00000000000E+00 0. -1.
        6    2    1    2  501    0 -0.11388942644E+03 -0.21630985991E+03 -0.28605970760E+03  0.41392824014E+03  0.17246934431E+03 0.  0.
       24    2    3    3    0    0 -0.42612164498E+02 -0.96579048258E+02 -0.53571107564E+02  0.14283977769E+03  0.79937659459E+02 0.  0.
       -6    2    1    2    0  503  0.11388942644E+03  0.21630985991E+03 -0.24165115927E+03  0.38480694957E+03  0.17297499447E+03 0.  0.
      -24    2    5    5    0    0  0.75198491578E+02  0.92410689363E+02 -0.20221826853E+03  0.24906809819E+03  0.83355508298E+02 0.  0.
        5    1    3    3  501    0 -0.71277261938E+02 -0.11973081165E+03 -0.23248860003E+03  0.27108846245E+03  0.47000000000E+01 0. -1.
        4    1    4    4  502    0 -0.27654511976E+02  0.63481849957E+01 -0.12764514831E+02  0.31112767866E+02  0.00000000000E+00 0. -1.
       -3    1    4    4    0  502 -0.14957652522E+02 -0.10292723325E+03 -0.40806592733E+02  0.11172700983E+03  0.00000000000E+00 0.  1.
       -5    1    5    5    0  503  0.38690934858E+02  0.12389917055E+03 -0.39432890739E+02  0.13573885138E+03  0.47000000000E+01 0.  1.
       11    1    6    6    0    0  0.72298397447E+02  0.73533503869E+02 -0.95160748594E+02  0.14032035682E+03  0.00000000000E+00 0. -1.
      -12    1    6    6    0    0  0.29000941311E+01  0.18877185494E+02 -0.10705751994E+03  0.10874774137E+03  0.00000000000E+00 0.  1.
</event>
<event>
12   0  0.1544783E-01  0.2112708E+03  0.7957747E-01  0.1147114E+00
       -2   -1    0    0    0  501  0.00000000000E+00  0.00000000000E+00  0.78949868002E+02  0.78949868002E+02  0.00000000000E+00 0.  1.
        2   -1    0    0  502    0  0.00000000000E+00  0.00000000000E+00 -0.85285235822E+03  0.85285235822E+03  0.00000000000E+00 0. -1.
        6    2    1    2  502    0  0.11842096430E+03  0.27941573658E+02 -0.65738656652E+03  0.69048528528E+03  0.17265160011E+03 0.  0.
       24    2    3    3    0    0  0.13697486018E+03  0.62689181228E+02 -0.56388901529E+03  0.58891991042E+03  0.78509830959E+02 0.  0.
       -6    2    1    2    0  501 -0.11842096430E+03 -0.27941573658E+02 -0.11651592370E+03  0.24131694094E+03  0.17278208584E+03 0.  0.
      -24    2    5    5    0    0 -0.34443915507E+02 -0.27802559737E+02  0.56883806068E+01  0.92965513452E+02  0.81552825665E+02 0.  0.
        5    1    3    3  502    0 -0.18553895887E+02 -0.34747607570E+02 -0.93497551228E+02  0.10156537486E+03  0.47000000000E+01 0. -1.
        4    1    4    4  503    0  0.42547344059E+02  0.34282315061E+02 -0.33881770922E+03  0.34319527050E+03  0.00000000000E+00 0. -1.
       -3    1    4    4    0  503  0.94427516125E+02  0.28406866168E+02 -0.22507130607E+03  0.24572463992E+03  0.00000000000E+00 0.  1.
       -5    1    5    5    0  501 -0.83977048789E+02 -0.13901392126E+00 -0.12220430431E+03  0.14835142749E+03  0.47000000000E+01 0.  1.
       13    1    6    6    0    0 -0.43745889327E+02 -0.76600155896E+01 -0.28092204350E+02  0.52550457820E+02  0.00000000000E+00 0. -1.
      -14    1    6    6    0    0  0.93019738199E+01 -0.20142544147E+02  0.33780584957E+02  0.40415055631E+02  0.00000000000E+00 0.  1.
</event>
<event>
12   0  0.1544783E-01  0.2088088E+03  0.7957747E-01  0.1148999E+00
       21   -1    0    0  504  503  0.00000000000E+00  0.00000000000E+00  0.99070153625E+02  0.99070153625E+02  0.00000000000E+00 0.  1.
       21   -1    0    0  501  504  0.00000000000E+00  0.00000000000E+00 -0.54227435268E+03  0.54227435268E+03  0.00000000000E+00 0. -1.
        6    2    1    2  501    0  0.31336153746E+02  0.10330099356E+03 -0.36845292515E+03  0.41955885385E+03  0.16917158152E+03 0.  0.
       24    2    3    3    0    0 -0.13817410620E+00  0.12998304285E+03 -0.32429274410E+03  0.35893891771E+03  0.82314957602E+02 0.  0.
       -6    2    1    2    0  503 -0.31336153746E+02 -0.10330099356E+03 -0.74751273908E+02  0.22178565246E+03  0.17874023857E+03 0.  0.
      -24    2    5    5    0    0  0.35183448357E+02 -0.90677445692E+02 -0.87789256098E+02  0.15267494124E+03  0.78373528705E+02 0.  0.
        5    1    3    3  501    0  0.31474327853E+02 -0.26682049295E+02 -0.44160181049E+02  0.60619936149E+02  0.47000000000E+01 0. -1.
        4    1    4    4  502    0 -0.33735293199E+02  0.10573206133E+03 -0.25658166963E+03  0.27955588348E+03  0.00000000000E+00 0. -1.
       -3    1    4    4    0  502  0.33597119092E+02  0.24250981526E+02 -0.67711074472E+02  0.79383034223E+02  0.00000000000E+00 0.  1.
       -5    1    5    5    0  503 -0.66519602104E+02 -0.12623547866E+02  0.13037982190E+02  0.69110711213E+02  0.47000000000E+01 0.  1.
       13    1    6    6    0    0  0.32275697014E+02 -0.27229364753E+01 -0.68416727704E+01  0.33105037186E+02  0.00000000000E+00 0. -1.
      -14    1    6    6    0    0  0.29077513429E+01 -0.87954509217E+02 -0.80947583327E+02  0.11956990406E+03  0.00000000000E+00 0.  1.
</event>
<event>
12   0  0.1544783E-01  0.1759891E+03  0.7957747E-01  0.1177221E+00
       21   -1    0    0  501  503  0.00000000000E+00  0.00000000000E+00  0.41740303321E+03  0.41740303321E+03  0.00000000000E+00 0.  1.
       21   -1    0    0  503  504  0.00000000000E+00  0.00000000000E+00 -0.13663887970E+03  0.13663887970E+03  0.00000000000E+00 0.  1.
        6    2    1    2  501    0  0.29560297225E+00 -0.30736672119E+02 -0.47005601575E+02  0.18201346556E+03  0.17313158196E+03 0.  0.
       24    2    3    3    0    0 -0.37305330915E+02  0.23109777770E+02  0.14258706579E+02  0.92076399520E+02  0.79680631850E+02 0.  0.
       -6    2    1    2    0  504 -0.29560297225E+00  0.30736672119E+02  0.32776975509E+03  0.37202844735E+03  0.17328393721E+03 0.  0.
      -24    2    5    5    0    0 -0.38922388698E+01 -0.28780036279E+02  0.28585188451E+03  0.29899166044E+03  0.82711988992E+02 0.  0.
        5    1    3    3  501    0  0.37600933887E+02 -0.53846449889E+02 -0.61264308153E+02  0.89937066042E+02  0.47000000000E+01 0. -1.
        4    1    4    4  502    0 -0.35470076913E+02  0.51475144486E+02  0.10867715302E+02  0.63450170149E+02  0.00000000000E+00 0. -1.
       -3    1    4    4    0  502 -0.18352540022E+01 -0.28365366715E+02  0.33909912766E+01  0.28626229371E+02  0.00000000000E+00 0.  1.
       -5    1    5    5    0  504  0.35966358976E+01  0.59516708398E+02  0.41917870575E+02  0.73036786908E+02  0.47000000000E+01 0.  1.
       11    1    6    6    0    0 -0.46491786060E+01 -0.42685149346E+02  0.66242229428E+02  0.78940925989E+02  0.00000000000E+00 0. -1.
      -12    1    6    6    0    0  0.75693973614E+00  0.13905113067E+02  0.21960965508E+03  0.22005073445E+03  0.00000000000E+00 0.  1.
</event>
<event>
12   0  0.1544783E-01  0.1877040E+03  0.7957747E-01  0.1166424E+00
       21   -1    0    0  504  503  0.00000000000E+00  0.00000000000E+00  0.37473352073E+03  0.37473352073E+03  0.00000000000E+00 0. -1.
       21   -1    0    0  501  504  0.00000000000E+00  0.00000000000E+00 -0.94595873680E+02  0.94595873680E+02  0.00000000000E+00 0. -1.
        6    2    1    2  501    0 -0.66397647607E+02 -0.28176529838E+02  0.15960230189E+03  0.24638521210E+03  0.17329227776E+03 0.  0.
       24    2    3    3    0    0 -0.53481004657E+01 -0.38623015395E+02  0.15338997892E+03  0.18396038352E+03  0.93768851840E+02 0.  0.
       -6    2    1    2    0  503  0.66397647607E+02  0.28176529838E+02  0.12053534515E+03  0.22294418230E+03  0.17312646981E+03 0.  0.
      -24    2    5    5    0    0  0.66495168511E+02 -0.10794050169E+02  0.12243904055E+02  0.10775806408E+03  0.83209183587E+02 0.  0.
        5    1    3    3  501    0 -0.61049547141E+02  0.10446485557E+02  0.62123229704E+01  0.62424828580E+02  0.47000000000E+01 0. -1.
      -11    1    4    4    0    0 -0.37608302586E+01  0.23841509670E+02  0.96447512373E+02  0.99421748479E+02  0.00000000000E+00 0.  1.
       12    1    4    4    0    0 -0.15872702072E+01 -0.62464525065E+02  0.56942466546E+02  0.84538635042E+02  0.00000000000E+00 0. -1.
       -5    1    5    5    0  503 -0.97520904463E-01  0.38970580007E+02  0.10829144110E+03  0.11518611823E+03  0.47000000000E+01 0.  1.
        1    1    6    6  502    0  0.34477772169E+02 -0.26357776572E+01  0.47945463847E+02  0.59113717537E+02  0.00000000000E+00 0. -1.
       -2    1    6    6    0  502  0.32017396342E+02 -0.81582725122E+01 -0.35701559792E+02  0.48644346542E+02  0.00000000000E+00 0.  1.
</event>
<event>
12   0  0.1544783E-01  0.1952603E+03  0.7957747E-01  0.1159908E+00
        1   -1    0    0  502    0  0.00000000000E+00  0.00000000000E+00  0.10838694867E+03  0.10838694867E+03  0.00000000000E+00 0.  1.
       -1   -1    0    0    0  501  0.00000000000E+00  0.00000000000E+00 -0.41160308200E+03  0.41160308200E+03  0.00000000000E+00 0. -1.
        6    2    1    2  502    0 -0.85862299503E+02  0.38729851420E+02 -0.25315849865E+03  0.32209252091E+03  0.17544808554E+03 0.  0.
       24    2    3    3    0    0 -0.84025485207E+02 -0.38110019988E+01 -0.73959118580E+02  0.13784375995E+03  0.80350140236E+02 0.  0.
       -6    2    1    2    0  501  0.85862299503E+02 -0.38729851420E+02 -0.50057634682E+02  0.19789750976E+03  0.16668929693E+03 0.  0.
      -24    2    5    5    0    0  0.46502200905E+02 -0.83357554202E+02 -0.56765459295E+02  0.13783142841E+03  0.81634850139E+02 0.  0.
        5    1    3    3  502    0 -0.18368142954E+01  0.42540853419E+02 -0.17919938007E+03  0.18424876095E+03  0.47000000000E+01 0. -1.
        2    1    4    4  503    0 -0.58616532092E+02 -0.29449958836E+02 -0.77544526564E+02  0.10156944181E+03  0.00000000000E+00 0. -1.
       -1    1    4    4    0  503 -0.25408953115E+02  0.25638956837E+02  0.35854079840E+01  0.36274318140E+02  0.00000000000E+00 0.  1.
       -5    1    5    5    0  501  0.39360098597E+02  0.44627702783E+02  0.67078246127E+01  0.60066081346E+02  0.47000000000E+01 0.  1.
       13    1    6    6    0    0  0.49325240777E+02 -0.72868893385E+02 -0.75652505176E+02  0.11604376993E+03  0.00000000000E+00 0. -1.
      -14    1    6    6    0    0 -0.28230398712E+01 -0.10488660818E+02  0.18887045881E+02  0.21787658478E+02  0.00000000000E+00 0.  1.
</event>
<event>
12   0  0.1544783E-01  0.2008719E+03  0.7957747E-01  0.1155276E+00
        1   -1    0    0  502    0  0.00000000000E+00  0.00000000000E+00  0.33025861221E+03  0.33025861221E+03  0.00000000000E+00 0.  1.
       -1   -1    0    0    0  501  0.00000000000E+00  0.00000000000E+00 -0.13339344035E+03  0.13339344035E+03  0.00000000000E+00 0. -1.
        6    2    1    2  502    0 -0.62690980294E+01  0.96248041959E+02  0.32767169545E+02  0.20676095890E+03  0.17992615028E+03 0.  0.
       24    2    3    3    0    0 -0.44676675738E+01  0.13657119815E+03  0.93267434103E+01  0.15984885328E+03  0.82419752074E+02 0.  0.
       -6    2    1    2    0  501  0.62690980294E+01 -0.96248041959E+02  0.16409800231E+03  0.25689109365E+03  0.17251635420E+03 0.  0.
      -24    2    5    5    0    0 -0.30696014693E+02 -0.36336786571E+02  0.21691443874E+02  0.97965022897E+02  0.82849378981E+02 0.  0.
        5    1    3    3  502    0 -0.18014304555E+01 -0.40323156195E+02  0.23440426135E+02  0.46912105630E+02  0.47000000000E+01 0. -1.
      -13    1    4    4    0    0 -0.12028391893E+02  0.19951433207E+02  0.33212142592E+02  0.40568316629E+02  0.00000000000E+00 0.  1.
       14    1    4    4    0    0  0.75607243187E+01  0.11661976495E+03 -0.23885399182E+02  0.11928053665E+03  0.00000000000E+00 0. -1.
       -5    1    5    5    0  501  0.36965112722E+02 -0.59911255388E+02  0.14240655844E+03  0.15892607076E+03  0.47000000000E+01 0.  1.
        1    1    6    6  503    0  0.10400650478E+02 -0.50722389294E+02  0.85147079331E+01  0.52473179409E+02  0.00000000000E+00 0. -1.
       -2    1    6    6    0  503 -0.41096665171E+02  0.14385602723E+02  0.13176735941E+02  0.45491843488E+02  0.00000000000E+00 0.  1.
</event>
<event>
12   0  0.1544783E-01  0.2004765E+03  0.7957747E-01  0.1155597E+00
       21   -1    0    0  501  503  0.00000000000E+00  0.00000000000E+00  0.27314624224E+03  0.27314624224E+03  0.00000000000E+00 0. -1.
       21   -1    0    0  503  504  0.00000000000E+00  0.00000000000E+00 -0.16989951544E+03  0.16989951544E+03  0.00000000000E+00 0.  1.
        6    2    1    2  501    0  0.36695233955E+02 -0.88151863724E+02  0.13935155293E+03  0.24415092314E+03  0.17627684673E+03 0.  0.
       24    2    3    3    0    0  0.92020342652E+02 -0.71079044985E+02  0.97985813408E+02  0.17283778832E+03  0.82168773535E+02 0.  0.
       -6    2    1    2    0  504 -0.36695233955E+02  0.88151863724E+02 -0.36104826132E+02  0.19889483454E+03  0.17069945948E+03 0.  0.
      -24    2    5    5    0    0 -0.87588975275E+02  0.69285731011E+02 -0.79051738655E+01  0.13754816180E+03  0.79904092063E+02 0.  0.
        5    1    3    3  501    0 -0.55325108697E+02 -0.17072818739E+02  0.41365739524E+02  0.71313134824E+02  0.47000000000E+01 0. -1.
        2    1    4    4  502    0  0.80994850117E+02 -0.29250792042E+02  0.96805180865E+02  0.12956472368E+03  0.00000000000E+00 0. -1.
       -1    1    4    4    0  502  0.11025492535E+02 -0.41828252943E+02  0.11806325422E+01  0.43273064637E+02  0.00000000000E+00 0.  1.
       -5    1    5    5    0  504  0.50893741321E+02  0.18866132713E+02 -0.28199652266E+02  0.61346672747E+02  0.47000000000E+01 0.  1.
       13    1    6    6    0    0 -0.30472069676E+02  0.18410217471E+02  0.34934533366E+02  0.49878900942E+02  0.00000000000E+00 0. -1.
      -14    1    6    6    0    0 -0.57116905600E+02  0.50875513540E+02 -0.42839707232E+02  0.87669260856E+02  0.00000000000E+00 0.  1.
</event>
<event>
12   0  0.1544783E-01  0.1964185E+03  0.7957747E-01  0.1158938E+00
       21   -1    0    0  504  503  0.00000000000E+00  0.00000000000E+00  0.49160876215E+03  0.49160876215E+03  0.00000000000E+00 0.  1.
       21   -1    0    0  501  504  0.00000000000E+00  0.00000000000E+00 -0.87951562077E+02  0.87951562077E+02  0.00000000000E+00 0. -1.
        6    2    1    2  501    0 -0.99181341105E+02  0.12880131008E+02  0.30023246763E+03  0.35757629866E+03  0.16648855378E+03 0.  0.
       24    2    3    3    0    0 -0.12070176535E+03  0.35420461231E+02  0.28523082048E+03  0.32267164905E+03  0.83287735712E+02 0.  0.
       -6    2    1    2    0  503  0.99181341105E+02 -0.12880131008E+02  0.10342473244E+03  0.22198402557E+03  0.16904850230E+03 0.  0.
      -24    2    5    5    0    0  0.12236977572E+03 -0.25663438419E+02  0.11959791683E+03  0.19060284742E+03  0.79955047716E+02 0.  0.
        5    1    3    3  501    0  0.21520424250E+02 -0.22540330223E+02  0.15001647158E+02  0.34904649603E+02  0.47000000000E+01 0. -1.
        2    1    4    4  502    0 -0.11587685693E+03  0.56639711726E+02  0.23925082885E+03  0.27180224801E+03  0.00000000000E+00 0. -1.
       -1    1    4    4    0  502 -0.48249084240E+01 -0.21219250495E+02  0.45979991626E+02  0.50869401047E+02  0.00000000000E+00 0.  1.
       -5    1    5    5    0  503 -0.23188434615E+02  0.12783307411E+02 -0.16173184394E+02  0.31381178143E+02  0.47000000000E+01 0.  1.
       11    1    6    6    0    0  0.12696779646E+03 -0.21947724464E+02  0.82416186229E+02  0.15295408363E+03  0.00000000000E+00 0. -1.
      -12    1    6    6    0    0 -0.45980207373E+01 -0.37157139548E+01  0.37181730601E+02  0.37648763796E+02  0.00000000000E+00 0.  1.
</event>
<event>
12   0  0.1544783E-01  0.2475934E+03  0.7957747E-01  0.1122195E+00
        2   -1    0    0  502    0  0.00000000000E+00  0.00000000000E+00  0.12520818291E+03  0.12520818291E+03  0.00000000000E+00 0. -1.
       -2   -1    0    0    0  501  0.00000000000E+00  0.00000000000E+00 -0.56224586102E+03  0.56224586102E+03  0.00000000000E+00 0.  1.
        6    2    1    2  502    0 -0.16684766779E+03  0.58241370596E+02 -0.34217789498E+03  0.42244366871E+03  0.17361664646E+03 0.  0.
       24    2    3    3    0    0 -0.27836640754E+02  0.17989961211E+02 -0.60069196147E+02  0.10534486778E+03  0.79941951248E+02 0.  0.
       -6    2    1    2    0  501  0.16684766779E+03 -0.58241370596E+02 -0.94859783137E+02  0.26501037522E+03  0.17321062040E+03 0.  0.
      -24    2    5    5    0    0  0.16328217595E+03 -0.77973616461E+02 -0.33864318588E+02  0.20063172227E+03  0.79783093834E+02 0.  0.
        5    1    3    3  502    0 -0.13901102704E+03  0.40251409385E+02 -0.28210869883E+03  0.31709880093E+03  0.47000000000E+01 0. -1.
        4    1    4    4  503    0  0.34757411025E+01 -0.28720545255E+02 -0.11832624178E+02  0.31256383202E+02  0.00000000000E+00 0. -1.
       -3    1    4    4    0  503 -0.31312381857E+02  0.46710506466E+02 -0.48236571969E+02  0.74088484579E+02  0.00000000000E+00 0.  1.
       -5    1    5    5    0  501  0.35654918414E+01  0.19732245865E+02 -0.60995464549E+02  0.64378652941E+02  0.47000000000E+01 0.  1.
       13    1    6    6    0    0  0.16385968105E+03 -0.76920317520E+02 -0.47339101208E+02  0.18710350297E+03  0.00000000000E+00 0. -1.
      -14    1    6    6    0    0 -0.57750509904E+00 -0.10532989406E+01  0.13474782620E+02  0.13528219301E+02  0.00000000000E+00 0.  1.
</event>
<event>
12   0  0.1544783E-01  0.1755478E+03  0.7957747E-01  0.1177646E+00
       -2   -1    0    0    0  501  0.00000000000E+00  0.00000000000E+00  0.24405618841E+02  0.24405618841E+02  0.00000000000E+00 0.  1.
        2   -1    0    0  502    0  0.00000000000E+00  0.00000000000E+00 -0.12697569239E+04  0.12697569239E+04  0.00000000000E+00 0. -1.
        6    2    1    2  502    0 -0.22980051241E+02  0.21031860245E+02 -0.67173355174E+03  0.69435296875E+03  0.17300190396E+03 0.  0.
       24    2    3    3    0    0  0.25252764511E+02  0.28883657976E+02 -0.16880411184E+03  0.18903310296E+03  0.75938909830E+02 0.  0.
       -6    2    1    2    0  501  0.22980051241E+02 -0.21031860245E+02 -0.57361775330E+03  0.59980957397E+03  0.17252181379E+03 0.  0.
      -24    2    5    5    0    0  0.44561938163E+02 -0.68495338308E+02 -0.30206958558E+03  0.32326110266E+03  0.81082231472E+02 0.  0.
        5    1    3    3  502    0 -0.48232815752E+02 -0.78517977311E+01 -0.50292943990E+03  0.50531986579E+03  0.47000000000E+01 0. -1.
      -13    1    4    4    0    0 -0.29152195438E+01  0.13742965563E+02  0.29264801379E+01  0.14350327294E+02  0.00000000000E+00 0.  1.
       14    1    4    4    0    0  0.28167984055E+02  0.15140692414E+02 -0.17173059198E+03  0.17468277567E+03  0.00000000000E+00 0. -1.
       -5    1    5    5    0  501 -0.21581886923E+02  0.47463478063E+02 -0.27154816772E+03  0.27654847131E+03  0.47000000000E+01 0.  1.
        3    1    6    6  503    0  0.56483669245E+02 -0.23560086602E+02 -0.11244682275E+03  0.12802253910E+03  0.00000000000E+00 0. -1.
       -4    1    6    6    0  503 -0.11921731081E+02 -0.44935251706E+02 -0.18962276283E+03  0.19523856356E+03  0.00000000000E+00 0.  1.
</event>
<event>
12   0  0.1544783E-01  0.1835081E+03  0.7957747E-01  0.1170189E+00
       21   -1    0    0  501  503  0.00000000000E+00  0.00000000000E+00  0.73826383234E+02  0.73826383234E+02  0.00000000000E+00 0. -1.
       21   -1    0    0  503  504  0.00000000000E+00  0.00000000000E+00 -0.52875401371E+03  0.52875401371E+03  0.00000000000E+00 0. -1.
        6    2    1    2  501    0 -0.57335114135E+02 -0.10557078371E+02 -0.11083471439E+03  0.21261225274E+03  0.17181638130E+03 0.  0.
       24    2    3    3    0    0 -0.75304478933E+02 -0.23518991787E+02 -0.15837085397E+02  0.11495187805E+03  0.82092712652E+02 0.  0.
       -6    2    1    2    0  504  0.57335114135E+02  0.10557078371E+02 -0.34409291609E+03  0.38996814421E+03  0.17400129706E+03 0.  0.
      -24    2    5    5    0    0  0.87187698325E+02  0.26708229007E+02 -0.14324084400E+03  0.18621417170E+03  0.76437910208E+02 0.  0.
        5    1    3    3  501    0  0.17969364798E+02  0.12961913416E+02 -0.94997628993E+02  0.97660374692E+02  0.47000000000E+01 0. -1.
      -13    1    4    4    0    0  0.68488634885E+01 -0.29723828710E+02 -0.10989939358E+02  0.32422086474E+02  0.00000000000E+00 0.  1.
       14    1    4    4    0    0 -0.82153342422E+02  0.62048369225E+01 -0.48471460386E+01  0.82529791573E+02  0.00000000000E+00 0. -1.
       -5    1    5    5    0  504 -0.29852584190E+02 -0.16151150636E+02 -0.20085207209E+03  0.20375397250E+03  0.47000000000E+01 0.  1.
        3    1    6    6  502    0  0.55086867592E+02  0.25424023860E+02 -0.14159476901E+03  0.15404552113E+03  0.00000000000E+00 0. -1.
       -4    1    6    6    0  502  0.32100830733E+02  0.12842051470E+01 -0.16460749917E+01  0.32168650570E+02  0.00000000000E+00 0.  1.
</event>
<event>
12   0  0.1544783E-01  0.2054747E+03  0.7957747E-01  0.1151598E+00
       21   -1    0    0  504  503  0.00000000000E+00  0.00000000000E+00  0.97851144369E+03  0.97851144369E+03  0.00000000000E+00 0.  1.
       21   -1    0    0  501  504  0.00000000000E+00  0.00000000000E+00 -0.47951878062E+02  0.47951878062E+02  0.00000000000E+00 0. -1.
        6    2    1    2  501    0 -0.89074992725E+02  0.65473561074E+02  0.62777971366E+03  0.66055069907E+03  0.17320137307E+03 0.  0.
       24    2    3    3    0    0 -0.57664707859E+02 -0.21180152032E+02  0.43742196193E+03  0.44900014806E+03  0.80556457262E+02 0.  0.
       -6    2    1    2    0  503  0.89074992725E+02 -0.65473561074E+02  0.30277985197E+03  0.36591262268E+03  0.17319141766E+03 0.  0.
      -24    2    5    5    0    0  0.96983677804E+02 -0.45653696907E+02  0.11531198301E+03  0.17717559344E+03  0.81266497913E+02 0.  0.
        5    1    3    3  501    0 -0.31410284866E+02  0.86653713106E+02  0.19035775173E+03  0.21155055101E+03  0.47000000000E+01 0. -1.
        2    1    4    4  502    0  0.31168944495E+00 -0.29167871454E+02  0.56268720494E+02  0.63380050343E+02  0.00000000000E+00 0. -1.
       -1    1    4    4    0  502 -0.57976397304E+02  0.79877194223E+01  0.38115324144E+03  0.38562009772E+03  0.00000000000E+00 0.  1.
       -5    1    5    5    0  503 -0.79086850793E+01 -0.19819864167E+02  0.18746786895E+03  0.18873702924E+03  0.47000000000E+01 0.  1.
       13    1    6    6    0    0  0.10148977437E+03 -0.45203364259E+02  0.12454117143E+03  0.16689524206E+03  0.00000000000E+00 0. -1.
      -14    1    6    6    0    0 -0.45060965657E+01 -0.45033264756E+00 -0.92291884130E+01  0.10280351381E+02  0.00000000000E+00 0.  1.
</event>
<event>
12   0  0.1544783E-01  0.2292671E+03  0.7957747E-01  0.1134137E+00
       -1   -1    0    0    0  501  0.00000000000E+00  0.00000000000E+00  0.19490445132E+03  0.19490445132E+03  0.00000000000E+00 0. -1.
        1   -1    0    0  502    0  0.00000000000E+00  0.00000000000E+00 -0.27083959956E+03  0.27083959956E+03  0.00000000000E+00 0.  1.
        6    2    1    2  502    0  0.14925132180E+03  0.44911657727E+01 -0.53254505345E+02  0.23608731531E+03  0.17494299209E+03 0.  0.
       24    2    3    3    0    0  0.14327531136E+03 -0.45728518551E+02 -0.65904019875E+02  0.18374393357E+03  0.82459572122E+02 0.  0.
       -6    2    1    2    0  501 -0.14925132180E+03 -0.44911657727E+01 -0.22680642891E+02  0.22965673556E+03  0.17300773681E+03 0.  0.
      -24    2    5    5    0    0 -0.87837721412E+02 -0.97083679181E+01  0.54282093124E+02  0.13094400971E+03  0.79937915493E+02 0.  0.
        5    1    3    3  502    0  0.59760104458E+01  0.50219684324E+02  0.12649514530E+02  0.52343381743E+02  0.47000000000E+01 0. -1.
        4    1    4    4  503    0  0.10779024388E+03  0.65745834238E+01 -0.36098561013E+02  0.11386425220E+03  0.00000000000E+00 0. -1.
       -3    1    4    4    0  503  0.35485067484E+02 -0.52303101975E+02 -0.29805458861E+02  0.69879681371E+02  0.00000000000E+00 0.  1.
       -5    1    5    5    0  501 -0.61413600393E+02  0.52172021454E+01 -0.76962736015E+02  0.98712725859E+02  0.47000000000E+01 0.  1.
       13    1    6    6    0    0 -0.70490323145E+02  0.90906669367E+01  0.15213675563E+00  0.71074250106E+02  0.00000000000E+00 0. -1.
      -14    1    6    6    0    0 -0.17347398266E+02 -0.18799034855E+02  0.54129956369E+02  0.59869759600E+02  0.00000000000E+00 0.  1.
</event>
<event>
12   0  0.1544783E-01  0.1864641E+03  0.7957747E-01  0.1167525E+00
       21   -1    0    0  501  503  0.00000000000E+00  0.00000000000E+00  0.15552460988E+03  0.15552460988E+03  0.00000000000E+00 0.  1.
       21   -1    0    0  503  504  0.00000000000E+00  0.00000000000E+00 -0.53656999157E+03  0.53656999157E+03  0.00000000000E+00 0. -1.
        6    2    1    2  501    0  0.68094436286E+02  0.16445170869E+02  0.74273350141E+02  0.20007428237E+03  0.17206362784E+03 0.  0.
       24    2    3    3    0    0  0.82846054282E+02  0.33578410908E+02  0.10852294012E+03  0.15876710912E+03  0.73748139075E+02 0.  0.
       -6    2    1    2    0  504 -0.68094436286E+02 -0.16445170869E+02 -0.45531873183E+03  0.49202031909E+03  0.17280495059E+03 0.  0.
      -24    2    5    5    0    0 -0.98106492658E+02 -0.42665756524E+02 -0.41066476086E+03  0.43198441514E+03  0.80744897252E+02 0.  0.
        5    1    3    3  501    0 -0.14751617996E+02 -0.17133240038E+02 -0.34249589979E+02  0.41307173244E+02  0.47000000000E+01 0. -1.
      -13    1    4    4    0    0  0.48138081696E+02 -0.19425648263E+02  0.40767875771E+02  0.66004927200E+02  0.00000000000E+00 0.  1.
       14    1    4    4    0    0  0.34707972586E+02  0.53004059171E+02  0.67755064350E+02  0.92762181920E+02  0.00000000000E+00 0. -1.
       -5    1    5    5    0  504  0.30012056372E+02  0.26220585655E+02 -0.44653970970E+02  0.60035903951E+02  0.47000000000E+01 0.  1.
        1    1    6    6  502    0 -0.16068872827E+02 -0.45357027618E+02 -0.10518368124E+03  0.11566795333E+03  0.00000000000E+00 0. -1.
       -2    1    6    6    0  502 -0.82037619832E+02  0.26912710939E+01 -0.30548107963E+03  0.31631646182E+03  0.00000000000E+00 0.  1.
</event>
<event>
12   0  0.1544783E-01  0.1757925E+03  0.7957747E-01  0.1177410E+00
       21   -1    0    0  501  503  0.00000000000E+00  0.00000000000E+00  0.69395023861E+02  0.69395023861E+02  0.00000000000E+00 0.  1.
       21   -1    0    0  503  504  0.00000000000E+00  0.00000000000E+00 -0.44251986317E+03  0.44251986317E+03  0.00000000000E+00 0.  1.
        6    2    1    2  501    0  0.50844562918E+01 -0.27198749635E+02 -0.15799343784E+03  0.23635759702E+03  0.17360116241E+03 0.  0.
       24    2    3    3    0    0  0.10441504044E+02 -0.85231933602E+02 -0.93131531573E+02  0.14903231267E+03  0.78508856400E+02 0.  0.
       -6    2    1    2    0  504 -0.50844562918E+01  0.27198749635E+02 -0.21513140146E+03  0.27555729001E+03  0.16995492492E+03 0.  0.
      -24    2    5    5    0    0  0.42759228472E+02  0.40087417866E+02 -0.20042434429E+03  0.22365812363E+03  0.80110459928E+02 0.  0.
        5    1    3    3  501    0 -0.53570477523E+01  0.58033183967E+02 -0.64861906269E+02  0.87325284350E+02  0.47000000000E+01 0. -1.
        4    1    4    4  502    0  0.80795433261E-01 -0.64033396827E+02 -0.12790760159E+02  0.65298437827E+02  0.00000000000E+00 0. -1.
       -3    1    4    4    0  502  0.10360708611E+02 -0.21198536775E+02 -0.80340771414E+02  0.83733874840E+02  0.00000000000E+00 0.  1.
       -5    1    5    5    0  504 -0.47843684763E+02 -0.12888668231E+02 -0.14707057173E+02  0.51899166383E+02  0.47000000000E+01 0.  1.
       11    1    6    6    0    0 -0.16024697992E+01 -0.16737876446E+02 -0.91540072867E+02  0.93071528181E+02  0.00000000000E+00 0. -1.
      -12    1    6    6    0    0  0.44361698271E+02  0.56825294312E+02 -0.10888427142E+03  0.13058659545E+03  0.00000000000E+00 0.  1.
</event>
<event>
12   0  0.1544783E-01  0.1809071E+03  0.7957747E-01  0.1172579E+00
       21   -1    0    0  504  503  0.00000000000E+00  0.00000000000E+00  0.17365243016E+03  0.17365243016E+03  0.00000000000E+00 0. -1.
       21   -1    0    0  501  504  0.00000000000E+00  0.00000000000E+00 -0.18805293091E+03  0.18805293091E+03  0.00000000000E+00 0. -1.
        6    2    1    2  501    0  0.47437756695E+02  0.12280861714E+02 -0.21863281955E+02  0.18064435009E+03  0.17249121079E+03 0.  0.
       24    2    3    3    0    0  0.96196747774E+01 -0.40758545150E+02 -0.56419420194E+02  0.10675522579E+03  0.80372446230E+02 0.  0.
       -6    2    1    2    0  503 -0.47437756695E+02 -0.12280861714E+02  0.74627812031E+01  0.18106101098E+03  0.17414429726E+03 0.  0.
      -24    2    5    5    0    0 -0.35816732272E+02 -0.61409962896E+02  0.47559900927E+02  0.11641902925E+03  0.78977366006E+02 0.  0.
        5    1    3    3  501    0  0.37818081918E+02  0.53039406863E+02  0.34556138239E+02  0.73889124304E+02  0.47000000000E+01 0. -1.
        2    1    4    4  502    0  0.34426190411E+02 -0.51062647815E+02 -0.49514420371E+02  0.79020468316E+02  0.00000000000E+00 0. -1.
       -1    1    4    4    0  502 -0.24806515634E+02  0.10304102666E+02 -0.69049998235E+01  0.27734757475E+02  0.00000000000E+00 0.  1.
       -5    1    5    5    0  503 -0.11621024423E+02  0.49129101183E+02 -0.40097119723E+02  0.64641981728E+02  0.47000000000E+01 0.  1.
       13    1    6    6    0    0 -0.32494572412E+02 -0.62955087603E+02  0.21682712699E+01  0.70879769269E+02  0.00000000000E+00 0. -1.
      -14    1    6    6    0    0 -0.33221598596E+01  0.15451247064E+01  0.45391629657E+02  0.45539259978E+02  0.00000000000E+00 0.  1.
</event>
<event>
12   0  0.1544783E-01  0.2103613E+03  0.7957747E-01  0.1147807E+00
       -1   -1    0    0    0  501  0.00000000000E+00  0.00000000000E+00  0.16020775283E+03  0.16020775283E+03  0.00000000000E+00 0. -1.
        1   -1    0    0  502    0  0.00000000000E+00  0.00000000000E+00 -0.27851641499E+03  0.27851641499E+03  0.00000000000E+00 0.  1.
        6    2    1    2  502    0 -0.11938644883E+03  0.97204982732E+01 -0.39328496456E+02  0.21438527661E+03  0.17339753154E+03 0.  0.
       24    2    3    3    0    0 -0.70114944155E+01  0.18249970632E+02 -0.56478278238E+02  0.10029282597E+03  0.80539633387E+02 0.  0.
       -6    2    1    2    0  501  0.11938644883E+03 -0.97204982732E+01 -0.78980165707E+02  0.22433889120E+03  0.17246002226E+03 0.  0.
      -24    2    5    5    0    0  0.13064332074E+03  0.31556346644E+02 -0.85469101334E+02  0.18081083844E+03  0.85581024461E+02 0.  0.
        5    1    3    3  502    0 -0.11237495442E+03 -0.85294723583E+01  0.17149781781E+02  0.11409245065E+03  0.47000000000E+01 0. -1.
        4    1    4    4  503    0 -0.27170416690E+02 -0.16337851678E+02 -0.50767319022E+02  0.59853802062E+02  0.00000000000E+00 0. -1.
       -3    1    4    4    0  503  0.20158922274E+02  0.34587822310E+02 -0.57109592155E+01  0.40439023907E+02  0.00000000000E+00 0.  1.
       -5    1    5    5    0  501 -0.11256871904E+02 -0.41276844917E+02  0.64889356268E+01  0.43528052759E+02  0.47000000000E+01 0.  1.
       13    1    6    6    0    0  0.63577872916E+01  0.23263097557E+02  0.76379525036E+01  0.25296867111E+02  0.00000000000E+00 0. -1.
      -14    1    6    6    0    0  0.12428553345E+03  0.82932490876E+01 -0.93107053837E+02  0.15551397133E+03  0.00000000000E+00 0.  1.
</event>
<event>
12   0  0.1544783E-01  0.2414780E+03  0.7957747E-01  0.1126051E+00
       21   -1    0    0  504  503  0.00000000000E+00  0.00000000000E+00  0.48201567746E+03  0.48201567746E+03  0.00000000000E+00 0. -1.
       21   -1    0    0  501  504  0.00000000000E+00  0.00000000000E+00 -0.16215998320E+03  0.16215998320E+03  0.00000000000E+00 0.  1.
        6    2    1    2  501    0  0.42293150159E+02  0.16172092901E+03  0.32351286427E+03  0.40266999419E+03  0.17187257328E+03 0.  0.
       24    2    3    3    0    0  0.72822675962E+01  0.17510666016E+03  0.30333345126E+03  0.35984198460E+03  0.82217378787E+02 0.  0.
       -6    2    1    2    0  503 -0.42293150159E+02 -0.16172092901E+03 -0.36571700094E+01  0.24150566647E+03  0.17426773257E+03 0.  0.
      -24    2    5    5    0    0 -0.21703486830E+02 -0.22777103329E+02 -0.40777871295E+02  0.96146258810E+02  0.81187625406E+02 0.  0.
        5    1    3    3  501    0  0.35010882563E+02 -0.13385731148E+02  0.20179413003E+02  0.42828009589E+02  0.47000000000E+01 0. -1.
      -13    1    4    4    0    0 -0.28243703823E+02  0.53666825382E+02  0.58582558339E+02  0.84319339974E+02  0.00000000000E+00 0.  1.
       14    1    4    4    0    0  0.35525971419E+02  0.12143983478E+03  0.24475089293E+03  0.27552264463E+03  0.00000000000E+00 0. -1.
       -5    1    5    5    0  503 -0.20589663330E+02 -0.13894382568E+03  0.37120701285E+02  0.14535940766E+03  0.47000000000E+01 0.  1.
        1    1    6    6  502    0  0.30482765273E+02 -0.87064109578E+01 -0.71788036943E+01  0.32504396517E+02  0.00000000000E+00 0. -1.
       -2    1    6    6    0  502 -0.52186252103E+02 -0.14070692371E+02 -0.33599067600E+02  0.63641862292E+02  0.00000000000E+00 0.  1.
</event>
<event>
12   0  0.1544783E-01  0.1983113E+03  0.7957747E-01  0.1157369E+00
        2   -1    0    0  502    0  0.00000000000E+00  0.00000000000E+00  0.71352137330E+03  0.71352137330E+03  0.00000000000E+00 0.  1.
       -2   -1    0    0    0  501  0.00000000000E+00  0.00000000000E+00 -0.10311259660E+03  0.10311259660E+03  0.00000000000E+00 0. -1.
        6    2    1    2  502    0  0.92899429584E+02 -0.48079834481E+02  0.29814397302E+02  0.20430138827E+03  0.17293982903E+03 0.  0.
       24    2    3    3    0    0  0.17540886606E+02 -0.21687154817E+02 -0.44285034310E+02  0.95267910366E+02  0.79603989188E+02 0.  0.
       -6    2    1    2    0  501 -0.92899429584E+02  0.48079834481E+02  0.58059437940E+03  0.61233258162E+03  0.16407127301E+03 0.  0.
      -24    2    5    5    0    0 -0.94452131386E+02  0.82362968308E+02  0.53522986945E+03  0.55525567815E+03  0.78313417024E+02 0.  0.
        5    1    3    3  502    0  0.75358542978E+02 -0.26392679664E+02  0.74099431613E+02  0.10903347791E+03  0.47000000000E+01 0. -1.
      -11    1    4    4    0    0  0.27076660259E+02  0.24243275807E+02 -0.11812919475E+02  0.38215533742E+02  0.00000000000E+00 0.  1.
       12    1    4    4    0    0 -0.95357736532E+01 -0.45930430625E+02 -0.32472114836E+02  0.57052376624E+02  0.00000000000E+00 0. -1.
       -5    1    5    5    0  501  0.15527018019E+01 -0.34283133827E+02  0.45364509941E+02  0.57076903473E+02  0.47000000000E+01 0.  1.
        1    1    6    6  503    0 -0.82343246676E+01  0.46726675360E+02  0.10806747711E+03  0.11802442926E+03  0.00000000000E+00 0. -1.
       -2    1    6    6    0  503 -0.86217806718E+02  0.35636292948E+02  0.42716239235E+03  0.43723124889E+03  0.00000000000E+00 0.  1.
</event>
<event>
12   0  0.1544783E-01  0.1913076E+03  0.7957747E-01  0.1163275E+00
       21   -1    0    0  504  503  0.00000000000E+00  0.00000000000E+00  0.35238917834E+03  0.35238917834E+03  0.00000000000E+00 0.  1.
       21   -1    0    0  501  504  0.00000000000E+00  0.00000000000E+00 -0.14403951576E+03  0.14403951576E+03  0.00000000000E+00 0.  1.
        6    2    1    2  501    0  0.55013294836E+02 -0.59784370539E+02 -0.26945085155E+02  0.19319583427E+03  0.17319918937E+03 0.  0.
       24    2    3    3    0    0 -0.16168636059E+02  0.18171687157E+02 -0.13119410626E+01  0.84461468530E+02  0.80872637343E+02 0.  0.
       -6    2    1    2    0  503 -0.55013294836E+02  0.59784370539E+02  0.23529474773E+03  0.30323285982E+03  0.17316441723E+03 0.  0.
      -24    2    5    5    0    0 -0.15185195035E+01  0.18400348875E+02  0.29748678215E+02  0.86794404525E+02  0.79419179428E+02 0.  0.
        5    1    3    3  501    0  0.71181930895E+02 -0.77956057695E+02 -0.25633144092E+02  0.10873436574E+03  0.47000000000E+01 0. -1.
      -11    1    4    4    0    0  0.29825713291E+02  0.43060938924E+01 -0.16141499305E+02  0.34185722425E+02  0.00000000000E+00 0.  1.
       12    1    4    4    0    0 -0.45994349350E+02  0.13865593264E+02  0.14829558242E+02  0.50275746105E+02  0.00000000000E+00 0. -1.
       -5    1    5    5    0  503 -0.53494775332E+02  0.41384021664E+02  0.20554606952E+03  0.21643845530E+03  0.47000000000E+01 0.  1.
        1    1    6    6  502    0  0.20675338999E+02 -0.25197801664E+02  0.10942852689E+02  0.34382333784E+02  0.00000000000E+00 0. -1.
       -2    1    6    6    0  502 -0.22193858503E+02  0.43598150539E+02  0.18805825526E+02  0.52412070741E+02  0.00000000000E+00 0.  1.
</event>
<event>
12   0  0.1544783E-01  0.1899089E+03  0.7957747E-01  0.1164488E+00
       21   -1    0    0  504  503  0.00000000000E+00  0.00000000000E+00  0.13248205790E+03  0.13248205790E+03  0.00000000000E+00 0. -1.
       21   -1    0    0  501  504  0.00000000000E+00  0.00000000000E+00 -0.27599570703E+03  0.27599570703E+03  0.00000000000E+00 0.  1.
        6    2    1    2  501    0  0.70263976622E+02 -0.33633120837E+02 -0.99010053164E+02  0.21416905815E+03  0.17319694459E+03 0.  0.
       24    2    3    3    0    0  0.49397901110E+02 -0.14639383792E+02 -0.13696121238E+03  0.16664500487E+03  0.79735310622E+02 0.  0.
       -6    2    1    2    0  503 -0.70263976622E+02  0.33633120837E+02 -0.44503595968E+02  0.19430870678E+03  0.17235744907E+03 0.  0.
      -24    2    5    5    0    0 -0.11237125716E+02  0.16785081024E+02  0.39426931057E+02  0.90220047746E+02  0.78594924667E+02 0.  0.
        5    1    3    3  501    0  0.20866075511E+02 -0.18993737045E+02  0.37951159218E+02  0.47524053280E+02  0.47000000000E+01 0. -1.
      -13    1    4    4    0    0  0.43773754853E+02 -0.45707429448E+02 -0.94398930931E+02  0.11365064400E+03  0.00000000000E+00 0.  1.
       14    1    4    4    0    0  0.56241462580E+01  0.31068045656E+02 -0.42562281451E+02  0.52994360873E+02  0.00000000000E+00 0. -1.
       -5    1    5    5    0  503 -0.59026850905E+02  0.16848039813E+02 -0.83930527026E+02  0.10408865904E+03  0.47000000000E+01 0.  1.
        1    1    6    6  502    0 -0.43058862936E+02  0.15896879512E+02  0.10233354280E+02  0.47026566910E+02  0.00000000000E+00 0. -1.
       -2    1    6    6    0  502  0.31821737220E+02  0.88820151183E+00  0.29193576778E+02  0.43193480836E+02  0.00000000000E+00 0.  1.
</event>
<event>
12   0  0.1544783E-01  0.1747884E+03  0.7957747E-01  0.1178380E+00
       -2   -1    0    0    0  501  0.00000000000E+00  0.00000000000E+00  0.29789964985E+03  0.29789964985E+03  0.00000000000E+00 0.  1.
        2   -1    0    0  502    0  0.00000000000E+00  0.00000000000E+00 -0.15329245037E+03  0.15329245037E+03  0.00000000000E+00 0. -1.
        6    2    1    2  502    0  0.60144001016E+01 -0.24637389589E+02 -0.57107609750E+02  0.18514843868E+03  0.17428566000E+03 0.  0.
       24    2    3    3    0    0  0.42433752285E+02 -0.71602775619E+02 -0.45054902696E+02  0.12432513356E+03  0.80617701340E+02 0.  0.
       -6    2    1    2    0  501 -0.60144001016E+01  0.24637389589E+02  0.20171480922E+03  0.26604366153E+03  0.17160184034E+03 0.  0.
      -24    2    5    5    0    0 -0.20262541465E+02  0.57725138390E+02  0.67780242669E+02  0.12726914380E+03  0.88659525600E+02 0.  0.
        5    1    3    3  502    0 -0.36419352184E+02  0.46965386030E+02 -0.12052707054E+02  0.60823305120E+02  0.47000000000E+01 0. -1.
        4    1    4    4  503    0  0.13545937119E+02 -0.80683767437E+02 -0.46323273851E+02  0.94017064624E+02  0.00000000000E+00 0. -1.
       -3    1    4    4    0  503  0.28887815166E+02  0.90809918180E+01  0.12683711547E+01  0.30308068940E+02  0.00000000000E+00 0.  1.
       -5    1    5    5    0  501  0.14248141364E+02 -0.33087748801E+02  0.13393456655E+03  0.13877451773E+03  0.47000000000E+01 0.  1.
       11    1    6    6    0    0 -0.62696648586E+01  0.56443207723E+02  0.86735621757E+02  0.10367358621E+03  0.00000000000E+00 0. -1.
      -12    1    6    6    0    0 -0.13992876607E+02  0.12819306672E+01 -0.18955379088E+02  0.23595557597E+02  0.00000000000E+00 0.  1.
</event>
<event>
12   0  0.1544783E-01  0.2104803E+03  0.7957747E-01  0.1147716E+00
       -2   -1    0    0    0  501  0.00000000000E+00  0.00000000000E+00  0.42989904223E+03  0.42989904223E+03  0.00000000000E+00 0. -1.
        2   -1    0    0  502    0  0.00000000000E+00  0.00000000000E+00 -0.15986030080E+03  0.15986030080E+03  0.00000000000E+00 0.  1.
        6    2    1    2  502    0  0.60573462913E+02 -0.10304396728E+03  0.31068261246E+03  0.37510370002E+03  0.17289273114E+03 0.  0.
       24    2    3    3    0    0  0.94654616588E+02 -0.57153710644E+02  0.14238771435E+03  0.19730408410E+03  0.80178534058E+02 0.  0.
       -6    2    1    2    0  501 -0.60573462913E+02  0.10304396728E+03 -0.40643871029E+02  0.21465564301E+03  0.17360275696E+03 0.  0.
      -24    2    5    5    0    0  0.28862286702E+02  0.37385862879E+02  0.63946511439E+01  0.94055259307E+02  0.81084930185E+02 0.  0.
        5    1    3    3  502    0 -0.34081153675E+02 -0.45890256633E+02  0.16829489811E+03  0.17779961591E+03  0.47000000000E+01 0. -1.
      -11    1    4    4    0    0  0.11135020685E+02 -0.51429818400E+02  0.49263213965E+02  0.72082446937E+02  0.00000000000E+00 0.  1.
       12    1    4    4    0    0  0.83519595903E+02 -0.57238922436E+01  0.93124500384E+02  0.12522163716E+03  0.00000000000E+00 0. -1.
       -5    1    5    5    0  501 -0.89435749615E+02  0.65658104397E+02 -0.47038522173E+02  0.12060038371E+03  0.47000000000E+01 0.  1.
        3    1    6    6  503    0  0.18845533693E+01  0.29843579574E+02  0.40231740345E+02  0.50127674137E+02  0.00000000000E+00 0. -1.
       -4    1    6    6    0  503  0.26977733332E+02  0.75422833050E+01 -0.33837089201E+02  0.43927585169E+02  0.00000000000E+00 0.  1.
</event>
<event>
12   0  0.1544783E-01  0.3589759E+03  0.7957747E-01  0.1067878E+00
       -1   -1    0    0    0  501  0.00000000000E+00  0.00000000000E+00  0.25869299485E+03  0.25869299485E+03  0.00000000000E+00 0.  1.
        1   -1    0    0  502    0  0.00000000000E+00  0.00000000000E+00 -0.56545640990E+03  0.56545640990E+03  0.00000000000E+00 0. -1.
        6    2    1    2  502    0  0.18502658758E+03 -0.25642710630E+03 -0.11306155605E+02  0.35944673131E+03  0.17054156249E+03 0.  0.
       24    2    3    3    0    0  0.13846406243E+03 -0.12608824083E+03  0.47754978778E+02  0.20889243481E+03  0.79277804345E+02 0.  0.
       -6    2    1    2    0  501 -0.18502658758E+03  0.25642710630E+03 -0.29545725944E+03  0.46470267345E+03  0.16930411571E+03 0.  0.
      -24    2    5    5    0    0 -0.88768903125E+02  0.53249953688E+02 -0.14400908185E+03  0.19358436411E+03  0.77593908554E+02 0.  0.
        5    1    3    3  502    0  0.46562525149E+02 -0.13033886547E+03 -0.59061134384E+02  0.15055429650E+03  0.47000000000E+01 0. -1.
        4    1    4    4  503    0  0.13353254572E+03 -0.81282204178E+02  0.24709942010E+02  0.15826660645E+03  0.00000000000E+00 0. -1.
       -3    1    4    4    0  503  0.49315167117E+01 -0.44806036653E+02  0.23045036769E+02  0.50625828362E+02  0.00000000000E+00 0.  1.
       -5    1    5    5    0  501 -0.96257684457E+02  0.20317715261E+03 -0.15144817760E+03  0.27111830934E+03  0.47000000000E+01 0.  1.
       13    1    6    6    0    0 -0.73212803872E+02  0.67965533552E+02 -0.86234212457E+02  0.13196881374E+03  0.00000000000E+00 0. -1.
      -14    1    6    6    0    0 -0.15556099253E+02 -0.14715579864E+02 -0.57774869390E+02  0.61615550372E+02  0.00000000000E+00 0.  1.
</event>
<event>
12   0  0.1544783E-01  0.1813103E+03  0.7957747E-01  0.1172206E+00
       21   -1    0    0  501  503  0.00000000000E+00  0.00000000000E+00  0.87948065678E+03  0.87948065678E+03  0.00000000000E+00 0.  1.
       21   -1    0    0  503  504  0.00000000000E+00  0.00000000000E+00 -0.33401611255E+03  0.33401611255E+03  0.00000000000E+00 0.  1.
        6    2    1    2  501    0 -0.42008212193E+02 -0.28118837193E+02  0.84459658498E+03  0.86383841908E+03  0.17412083165E+03 0.  0.
       24    2    3    3    0    0 -0.72592215241E+02  0.30371533616E+02  0.60552846152E+03  0.61578164659E+03  0.79562923535E+02 0.  0.
       -6    2    1    2    0  504  0.42008212193E+02  0.28118837193E+02 -0.29913204076E+03  0.34965835025E+03  0.17385518455E+03 0.  0.
      -24    2    5    5    0    0 -0.41782043418E+02  0.17136967808E+02 -0.11759520478E+03  0.14936076862E+03  0.80253300226E+02 0.  0.
        5    1    3    3  501    0  0.30584003048E+02 -0.58490370809E+02  0.23906812346E+03  0.24805677249E+03  0.47000000000E+01 0. -1.
        4    1    4    4  502    0 -0.19224030542E+02 -0.26589882741E+02  0.14326004335E+03  0.14696947042E+03  0.00000000000E+00 0. -1.
       -3    1    4    4    0  502 -0.53368184699E+02  0.56961416357E+02  0.46226841817E+03  0.46881217618E+03  0.00000000000E+00 0.  1.
       -5    1    5    5    0  504  0.83790255611E+02  0.10981869384E+02 -0.18153683598E+03  0.20029758163E+03  0.47000000000E+01 0.  1.
       11    1    6    6    0    0  0.21334112388E+02  0.13895336549E+02 -0.17186176904E+02  0.30717900413E+02  0.00000000000E+00 0. -1.
      -12    1    6    6    0    0 -0.63116155806E+02  0.32416312593E+01 -0.10040902788E+03  0.11864286821E+03  0.00000000000E+00 0.  1.
</event>
<event>
12   0  0.1544783E-01  0.2030921E+03  0.7957747E-01  0.1153488E+00
       21   -1    0    0  501  503  0.00000000000E+00  0.00000000000E+00  0.49512009143E+03  0.49512009143E+03  0.00000000000E+00 0.  1.
       21   -1    0    0  503  504  0.00000000000E+00  0.00000000000E+00 -0.14499853418E+03  0.14499853418E+03  0.00000000000E+00 0.  1.
        6    2    1    2  501    0 -0.42870563196E+02  0.93683065455E+02  0.38586163618E+03  0.43604541733E+03  0.17502000388E+03 0.  0.
       24    2    3    3    0    0  0.14886191725E+02  0.11118876591E+03  0.29142133977E+03  0.32386987689E+03  0.85911346836E+02 0.  0.
       -6    2    1    2    0  504  0.42870563196E+02 -0.93683065455E+02 -0.35740078924E+02  0.20407320828E+03  0.17249382352E+03 0.  0.
      -24    2    5    5    0    0  0.85342457942E+02 -0.70830311316E+02  0.98928546523E+01  0.13751072003E+03  0.80691148341E+02 0.  0.
        5    1    3    3  501    0 -0.57756754921E+02 -0.17505700453E+02  0.94440296404E+02  0.11217554044E+03  0.47000000000E+01 0. -1.
        2    1    4    4  502    0  0.31812360701E+02  0.98979938774E+02  0.16006569350E+03  0.19086665714E+03  0.00000000000E+00 0. -1.
       -1    1    4    4    0  502 -0.16926168975E+02  0.12208827134E+02  0.13135564627E+03  0.13300321975E+03  0.00000000000E+00 0.  1.
       -5    1    5    5    0  504 -0.42471894746E+02 -0.22852754139E+02 -0.45632933576E+02  0.66562488249E+02  0.47000000000E+01 0.  1.
       11    1    6    6    0    0  0.34587152844E+02  0.13978825254E+02  0.10196377163E+02  0.38673567259E+02  0.00000000000E+00 0. -1.
      -12    1    6    6    0    0  0.50755305098E+02 -0.84809136570E+02 -0.30352251078E+00  0.98837152768E+02  0.00000000000E+00 0.  1.
</event>
<event>
12   0  0.1544783E-01  0.1981030E+03  0.7957747E-01  0.1157540E+00
        2   -1    0    0  502    0  0.00000000000E+00  0.00000000000E+00  0.63596941823E+03  0.63596941823E+03  0.00000000000E+00 0.  1.
       -2   -1    0    0    0  501  0.00000000000E+00  0.00000000000E+00 -0.61709735151E+02  0.61709735151E+02  0.00000000000E+00 0. -1.
        6    2    1    2  502    0  0.86079964854E+02  0.46022850499E+02  0.28542208390E+03  0.34699647955E+03  0.17150197586E+03 0.  0.
       24    2    3    3    0    0  0.98770788046E+01  0.50225497608E+02  0.23964617074E+03  0.25787820807E+03  0.80316410245E+02 0.  0.
       -6    2    1    2    0  501 -0.86079964854E+02 -0.46022850499E+02  0.28883759918E+03  0.35068267383E+03  0.17327237492E+03 0.  0.
      -24    2    5    5    0    0  0.19058431603E+02 -0.13404102552E+02  0.87635050876E+02  0.12128646512E+03  0.80545705654E+02 0.  0.
        5    1    3    3  502    0  0.76202886049E+02 -0.42026471085E+01  0.45775913164E+02  0.89118271476E+02  0.47000000000E+01 0. -1.
      -11    1    4    4    0    0 -0.24601891010E+02  0.55107123990E+02  0.15664136493E+03  0.16786472340E+03  0.00000000000E+00 0.  1.
       12    1    4    4    0    0  0.34478969815E+02 -0.48816263822E+01  0.83004805811E+02  0.90013484675E+02  0.00000000000E+00 0. -1.
       -5    1    5    5    0  501 -0.10513839646E+03 -0.32618747947E+02  0.20120254830E+03  0.22939620871E+03  0.47000000000E+01 0.  1.
        1    1    6    6  503    0 -0.69362552092E+01 -0.40821361964E+02  0.65523993560E+02  0.77510573220E+02  0.00000000000E+00 0. -1.
       -2    1    6    6    0  503  0.25994686813E+02  0.27417259412E+02  0.22111057317E+02  0.43775891902E+02  0.00000000000E+00 0.  1.
</event>
<event>
12   0  0.1544783E-01  0.2203446E+03  0.7957747E-01  0.1140401E+00
       21   -1    0    0  501  503  0.00000000000E+00  0.00000000000E+00  0.28849035783E+03  0.28849035783E+03  0.00000000000E+00 0.  1.
       21   -1    0    0  503  504  0.00000000000E+00  0.00000000000E+00 -0.19628170155E+03  0.19628170155E+03  0.00000000000E+00 0. -1.
        6    2    1    2  501    0 -0.29068767355E+02 -0.10999481937E+03  0.14961332040E+03  0.25707264891E+03  0.17538057947E+03 0.  0.
       24    2    3    3    0    0  0.41519171890E+02 -0.10320145097E+03  0.10682660341E+03  0.17411723817E+03  0.80811560527E+02 0.  0.
       -6    2    1    2    0  504  0.29068767355E+02  0.10999481937E+03 -0.57404664112E+02  0.22769941047E+03  0.18870048368E+03 0.  0.
      -24    2    5    5    0    0 -0.51482961079E+02  0.17269155771E+02 -0.18270509729E+02  0.98702504759E+02  0.80371972088E+02 0.  0.
        5    1    3    3  501    0 -0.70587939246E+02 -0.67933683980E+01  0.42786716991E+02  0.82955410746E+02  0.47000000000E+01 0. -1.
      -13    1    4    4    0    0  0.41826060958E+02 -0.39678268763E+02  0.92503556118E+02  0.10899858844E+03  0.00000000000E+00 0.  1.
       14    1    4    4    0    0 -0.30688906743E+00 -0.63523182208E+02  0.14323047288E+02  0.65118649728E+02  0.00000000000E+00 0. -1.
       -5    1    5    5    0  504  0.80551728435E+02  0.92725663598E+02 -0.39134154383E+02  0.12899690571E+03  0.47000000000E+01 0.  1.
        3    1    6    6  502    0  0.23371401591E+01 -0.26329724377E+02  0.20690929139E+01  0.26514104838E+02  0.00000000000E+00 0. -1.
       -4    1    6    6    0  502 -0.53820101238E+02  0.43598880148E+02 -0.20339602643E+02  0.72188399921E+02  0.00000000000E+00 0.  1.
</event>
<event>
12   0  0.1544783E-01  0.2706706E+03  0.7957747E-01  0.1108666E+00
       21   -1    0    0  501  503  0.00000000000E+00  0.00000000000E+00  0.28990180241E+03  0.28990180241E+03  0.00000000000E+00 0. -1.
       21   -1    0    0  503  504  0.00000000000E+00  0.00000000000E+00 -0.61816943800E+03  0.61816943800E+03  0.00000000000E+00 0. -1.
        6    2    1    2  501    0  0.10840671398E+03  0.15496196181E+03  0.18937285136E+03  0.33034019329E+03  0.19364230227E+03 0.  0.
       24    2    3    3    0    0  0.19090284621E+02 -0.57587062837E+01  0.39302855885E+02  0.92955165862E+02  0.81843428048E+02 0.  0.
       -6    2    1    2    0  504 -0.10840671398E+03 -0.15496196181E+03 -0.51764048695E+03  0.57773104712E+03  0.17336742439E+03 0.  0.
      -24    2    5    5    0    0 -0.29090878773E+01 -0.60561286469E+02 -0.31018526033E+03  0.32653192756E+03  0.82049203399E+02 0.  0.
        5    1    3    3  501    0  0.89316429362E+02  0.16072066810E+03  0.15006999547E+03  0.23738502743E+03  0.47000000000E+01 0. -1.
      -11    1    4    4    0    0 -0.57549502426E+01 -0.34432093249E+02  0.42360935243E+02  0.54892051632E+02  0.00000000000E+00 0.  1.
       12    1    4    4    0    0  0.24845234864E+02  0.28673386965E+02 -0.30580793577E+01  0.38063114229E+02  0.00000000000E+00 0. -1.
       -5    1    5    5    0  504 -0.10549762611E+03 -0.94400675344E+02 -0.20745522661E+03  0.25119911956E+03  0.47000000000E+01 0.  1.
        3    1    6    6  502    0 -0.27423690746E+02 -0.41336027966E+02 -0.27541355477E+03  0.27984522896E+03  0.00000000000E+00 0. -1.
       -4    1    6    6    0  502  0.24514602869E+02 -0.19225258503E+02 -0.34771705564E+02  0.46686698600E+02  0.00000000000E+00 0.  1.
</event>
<event>
12   0  0.1544783E-01  0.2012343E+03  0.7957747E-01  0.1154982E+00
       21   -1    0    0  504  503  0.00000000000E+00  0.00000000000E+00  0.30240313146E+03  0.30240313146E+03  0.00000000000E+00 0.  1.
       21   -1    0    0  501  504  0.00000000000E+00  0.00000000000E+00 -0.15612491508E+03  0.15612491508E+03  0.00000000000E+00 0.  1.
        6    2    1    2  501    0 -0.85448306995E+02  0.57079638505E+02  0.16258863394E+03  0.25870892116E+03  0.17301948936E+03 0.  0.
       24    2    3    3    0    0 -0.58438226557E+02  0.94346020796E+02  0.69594593728E+02  0.15484213528E+03  0.82561985304E+02 0.  0.
       -6    2    1    2    0  503  0.85448306995E+02 -0.57079638505E+02 -0.16310417562E+02  0.19981912539E+03  0.17059353695E+03 0.  0.
      -24    2    5    5    0    0  0.60652828453E+02 -0.19137021673E+02  0.54224597894E+02  0.11584450819E+03  0.80216281786E+02 0.  0.
        5    1    3    3  501    0 -0.27010080439E+02 -0.37266382291E+02  0.92994040215E+02  0.10386678588E+03  0.47000000000E+01 0. -1.
        2    1    4    4  502    0 -0.32570671287E+02  0.20390928055E+01 -0.54661437501E+01  0.33089050381E+02  0.00000000000E+00 0. -1.
       -1    1    4    4    0  502 -0.25867555269E+02  0.92306927991E+02  0.75060737478E+02  0.12175308489E+03  0.00000000000E+00 0.  1.
       -5    1    5    5    0  503  0.24795478542E+02 -0.37942616831E+02 -0.70535015456E+02  0.83974617198E+02  0.47000000000E+01 0.  1.
       13    1    6    6    0    0  0.76748554948E+02 -0.30040411890E+02  0.48264321485E+02  0.95510270451E+02  0.00000000000E+00 0. -1.
      -14    1    6    6    0    0 -0.16095726495E+02  0.10903390217E+02  0.59602764082E+01  0.20334237741E+02  0.00000000000E+00 0.  1.
</event>
<event>
12   0  0.1544783E-01  0.2150898E+03  0.7957747E-01  0.1144245E+00
       -2   -1    0    0    0  501  0.00000000000E+00  0.00000000000E+00  0.68458342091E+02  0.68458342091E+02  0.00000000000E+00 0. -1.
        2   -1    0    0  502    0  0.00000000000E+00  0.00000000000E+00 -0.69106715238E+03  0.69106715238E+03  0.00000000000E+00 0.  1.
        6    2    1    2  502    0 -0.97253508036E+02  0.10006669454E+03 -0.35847102968E+03  0.41509297674E+03  0.15597792164E+03 0.  0.
       24    2    3    3    0    0 -0.60466590816E+02  0.36535350966E+02 -0.30743983848E+03  0.32556208056E+03  0.80500767335E+02 0.  0.
       -6    2    1    2    0  501  0.97253508036E+02 -0.10006669454E+03 -0.26413778061E+03  0.34443251773E+03  0.17144504643E+03 0.  0.
      -24    2    5    5    0    0 -0.13669183891E+02 -0.19955962474E+02 -0.15324654479E+03  0.16824929163E+03  0.65101717484E+02 0.  0.
        5    1    3    3  502    0 -0.36786917220E+02  0.63531343575E+02 -0.51031191199E+02  0.89530896176E+02  0.47000000000E+01 0. -1.
        2    1    4    4  503    0 -0.77166160719E+02  0.13401253361E+02 -0.23488645442E+03  0.24760019471E+03  0.00000000000E+00 0. -1.
       -1    1    4    4    0  503  0.16699569903E+02  0.23134097605E+02 -0.72553384056E+02  0.77961885848E+02  0.00000000000E+00 0.  1.
       -5    1    5    5    0  501  0.11092269193E+03 -0.80110732067E+02 -0.11089123583E+03  0.17618322610E+03  0.47000000000E+01 0.  1.
       11    1    6    6    0    0 -0.35672724335E+02 -0.22088273882E+02 -0.65698908690E+02  0.77953715162E+02  0.00000000000E+00 0. -1.
      -12    1    6    6    0    0  0.22003540444E+02  0.21323114080E+01 -0.87547636096E+02  0.90295576470E+02  0.00000000000E+00 0.  1.
</event>
<event>
12   0  0.1544783E-01  0.1687939E+03  0.7957747E-01  0.1184323E+00
       21   -1    0    0  504  503  0.00000000000E+00  0.00000000000E+00  0.50771939678E+03  0.50771939678E+03  0.00000000000E+00 0.  1.
       21   -1    0    0  501  504  0.00000000000E+00  0.00000000000E+00 -0.61521562354E+02  0.61521562354E+02  0.00000000000E+00 0.  1.
        6    2    1    2  501    0 -0.19990860926E+02  0.12418991521E+02  0.13641552876E+03  0.21645709039E+03  0.16640495672E+03 0.  0.
       24    2    3    3    0    0  0.48451281229E+02  0.27777413725E+02  0.63920546488E+02  0.11547283216E+03  0.78288104702E+02 0.  0.
       -6    2    1    2    0  503  0.19990860926E+02 -0.12418991521E+02  0.30978230566E+03  0.35278386874E+03  0.16714519219E+03 0.  0.
      -24    2    5    5    0    0  0.58081507338E+02 -0.46859145598E+02  0.25301094871E+03  0.27608902845E+03  0.81494603766E+02 0.  0.
        5    1    3    3  501    0 -0.68442142155E+02 -0.15358422204E+02  0.72494982272E+02  0.10098425823E+03  0.47000000000E+01 0. -1.
        4    1    4    4  502    0  0.35986648018E+02 -0.12023248036E+02 -0.14057879669E+01  0.37968059849E+02  0.00000000000E+00 0. -1.
       -3    1    4    4    0  502  0.12464633211E+02  0.39800661761E+02  0.65326334455E+02  0.77504772312E+02  0.00000000000E+00 0.  1.
       -5    1    5    5    0  503 -0.38090646412E+02  0.34440154076E+02  0.56771356950E+02  0.76694840288E+02  0.47000000000E+01 0.  1.
       13    1    6    6    0    0  0.10667169330E+02  0.12106508167E+02  0.51517668957E+01  0.16938026557E+02  0.00000000000E+00 0. -1.
      -14    1    6    6    0    0  0.47414338008E+02 -0.58965653765E+02  0.24785918182E+03  0.25915100190E+03  0.00000000000E+00 0.  1.
</event>
<event>
12   0  0.1544783E-01  0.2233537E+03  0.7957747E-01  0.1138253E+00
        1   -1    0    0  502    0  0.00000000000E+00  0.00000000000E+00  0.14178511016E+03  0.14178511016E+03  0.00000000000E+00 0. -1.
       -1   -1    0    0    0  501  0.00000000000E+00  0.00000000000E+00 -0.56013592846E+03  0.56013592846E+03  0.00000000000E+00 0.  1.
        6    2    1    2  502    0  0.10460551846E+02 -0.14003156909E+03 -0.42314062007E+03  0.47843240856E+03  0.17358375996E+03 0.  0.
       24    2    3    3    0    0  0.21856681592E+02 -0.11485426823E+03 -0.42708316603E+03  0.45012336548E+03  0.80881369822E+02 0.  0.
       -6    2    1    2    0  501 -0.10460551846E+02  0.14003156909E+03  0.47898017781E+01  0.22348863006E+03  0.17379862507E+03 0.  0.
      -24    2    5    5    0    0 -0.69279068961E+02  0.90437225201E+02  0.33346254605E+02  0.14128900780E+03  0.76629824030E+02 0.  0.
        5    1    3    3  502    0 -0.11396129745E+02 -0.25177300860E+02  0.39425459549E+01  0.28309043085E+02  0.47000000000E+01 0. -1.
        4    1    4    4  503    0 -0.28138092559E+02 -0.68189310852E+02 -0.22420349517E+03  0.23602699341E+03  0.00000000000E+00 0. -1.
       -3    1    4    4    0  503  0.49994774151E+02 -0.46664957381E+02 -0.20287967085E+03  0.21409637207E+03  0.00000000000E+00 0.  1.
       -5    1    5    5    0  501  0.58818517115E+02  0.49594343892E+02 -0.28556452827E+02  0.82199622260E+02  0.47000000000E+01 0.  1.
       13    1    6    6    0    0 -0.27288823641E+02  0.91231890175E+02  0.20995175844E+02  0.97512743215E+02  0.00000000000E+00 0. -1.
      -14    1    6    6    0    0 -0.41990245320E+02 -0.79466497407E+00  0.12351078762E+02  0.43776264586E+02  0.00000000000E+00 0.  1.
</event>
<event>
12   0  0.1544783E-01  0.2665232E+03  0.7957747E-01  0.1110987E+00
       21   -1    0    0  501  503  0.00000000000E+00  0.00000000000E+00  0.92242698456E+03  0.92242698456E+03  0.00000000000E+00 0. -1.
       21   -1    0    0  503  504  0.00000000000E+00  0.00000000000E+00 -0.76433385219E+02  0.76433385219E+02  0.00000000000E+00 0.  1.
        6    2    1    2  501    0  0.12257396616E+03 -0.16235736464E+03  0.35700868790E+03  0.44552193352E+03  0.17219262172E+03 0.  0.
       24    2    3    3    0    0  0.29975886471E+02 -0.72114059477E+02  0.26241877221E+03  0.28524841530E+03  0.80025340251E+02 0.  0.
       -6    2    1    2    0  504 -0.12257396616E+03  0.16235736464E+03  0.48898491144E+03  0.55333843626E+03  0.16029001964E+03 0.  0.
      -24    2    5    5    0    0 -0.37961041086E+02  0.12370016393E+03  0.38443213575E+03  0.41331308441E+03  0.79352804308E+02 0.  0.
        5    1    3    3  501    0  0.92598079693E+02 -0.90243305162E+02  0.94589915696E+02  0.16027351821E+03  0.47000000000E+01 0. -1.
      -11    1    4    4    0    0 -0.17501364433E+02 -0.59814395526E+02  0.13403172878E+03  0.14781259753E+03  0.00000000000E+00 0.  1.
       12    1    4    4    0    0  0.47477250904E+02 -0.12299663952E+02  0.12838704343E+03  0.13743581777E+03  0.00000000000E+00 0. -1.
       -5    1    5    5    0  504 -0.84612925078E+02  0.38657200710E+02  0.10455277569E+03  0.14002535185E+03  0.47000000000E+01 0.  1.
        3    1    6    6  502    0  0.17172418151E+02  0.11063928130E+02  0.10588919756E+03  0.10784166454E+03  0.00000000000E+00 0. -1.
       -4    1    6    6    0  502 -0.55133459237E+02  0.11263623580E+03  0.27854293819E+03  0.30547141987E+03  0.00000000000E+00 0.  1.
</event>
<event>
12   0  0.1544783E-01  0.1896948E+03  0.7957747E-01  0.1164675E+00
       21   -1    0    0  501  503  0.00000000000E+00  0.00000000000E+00  0.14142304115E+03  0.14142304115E+03  0.00000000000E+00 0. -1.
       21   -1    0    0  503  504  0.00000000000E+00  0.00000000000E+00 -0.25596965914E+03  0.25596965914E+03  0.00000000000E+00 0. -1.
        6    2    1    2  501    0 -0.14974270962E+01  0.78647020482E+02 -0.87101971264E+02  0.20572287373E+03  0.16896020615E+03 0.  0.
       24    2    3    3    0    0 -0.62018074866E+02  0.36770318138E+02 -0.71306502367E+02  0.13030408401E+03  0.81830551288E+02 0.  0.
       -6    2    1    2    0  504  0.14974270962E+01 -0.78647020482E+02 -0.27444646722E+02  0.19166982655E+03  0.17261667839E+03 0.  0.
      -24    2    5    5    0    0  0.13224985145E+02 -0.11942498543E+03 -0.33069069525E+02  0.14861053981E+03  0.80958642571E+02 0.  0.
        5    1    3    3  501    0  0.60520647769E+02  0.41876702344E+02 -0.15795468897E+02  0.75418789723E+02  0.47000000000E+01 0. -1.
      -11    1    4    4    0    0 -0.51784108800E+01  0.34549152919E+02  0.48273370700E+01  0.35267025532E+02  0.00000000000E+00 0.  1.
       12    1    4    4    0    0 -0.56839663986E+02  0.22211652190E+01 -0.76133839437E+02  0.95037058479E+02  0.00000000000E+00 0. -1.
       -5    1    5    5    0  504 -0.11727558049E+02  0.40777964946E+02  0.56244228030E+01  0.43059286743E+02  0.47000000000E+01 0.  1.
        3    1    6    6  502    0 -0.13963414802E+02 -0.17761976115E+02  0.20515338074E+02  0.30517926612E+02  0.00000000000E+00 0. -1.
       -4    1    6    6    0  502  0.27188399947E+02 -0.10166300931E+03 -0.53584407598E+02  0.11809261320E+03  0.00000000000E+00 0.  1.
</event>
<event>
12   0  0.1544783E-01  0.2031165E+03  0.7957747E-01  0.1153469E+00
       21   -1    0    0  501  503  0.00000000000E+00  0.00000000000E+00  0.18409274897E+03  0.18409274897E+03  0.00000000000E+00 0. -1.
       21   -1    0    0  503  504  0.00000000000E+00  0.00000000000E+00 -0.22818513494E+03  0.22818513494E+03  0.00000000000E+00 0. -1.
        6    2    1    2  501    0  0.10153326244E+03  0.28954688998E+01 -0.58208684452E+02  0.20867140300E+03  0.17273713082E+03 0.  0.
       24    2    3    3    0    0  0.12167009634E+03 -0.19460511148E+02 -0.52263532532E+01  0.14756085283E+03  0.81022013570E+02 0.  0.
       -6    2    1    2    0  504 -0.10153326244E+03 -0.28954688998E+01  0.14116298476E+02  0.20360648090E+03  0.17589469026E+03 0.  0.
      -24    2    5    5    0    0 -0.97124264754E+02 -0.32879653011E+02  0.64107352305E+02  0.14495764442E+03  0.79929792135E+02 0.  0.
        5    1    3    3  501    0 -0.20136833896E+02  0.22355980047E+02 -0.52982331198E+02  0.61110550173E+02  0.47000000000E+01 0. -1.
      -13    1    4    4    0    0  0.31325279003E+02  0.30231796598E+02  0.55646633280E+01  0.43888496307E+02  0.00000000000E+00 0.  1.
       14    1    4    4    0    0  0.90344817336E+02 -0.49692307746E+02 -0.10791016581E+02  0.10367235652E+03  0.00000000000E+00 0. -1.
       -5    1    5    5    0  504 -0.44089976880E+01  0.29984184111E+02 -0.49991053829E+02  0.58648836479E+02  0.47000000000E+01 0.  1.
        1    1    6    6  502    0 -0.18711823785E+02  0.25352122866E+02  0.22891981370E+02  0.38947468393E+02  0.00000000000E+00 0. -1.
       -2    1    6    6    0  502 -0.78412440969E+02 -0.58231775877E+02  0.41215370935E+02  0.10601017603E+03  0.00000000000E+00 0.  1.
</event>
<event>
12   0  0.1544783E-01  0.2141704E+03  0.7957747E-01  0.1144929E+00
       -2   -1    0    0    0  501  0.00000000000E+00  0.00000000000E+00  0.42307176358E+02  0.42307176358E+02  0.00000000000E+00 0. -1.
        2   -1    0    0  502    0  0.00000000000E+00  0.00000000000E+00 -0.12902760802E+04  0.12902760802E+04  0.00000000000E+00 0.  1.
        6    2    1    2  502    0  0.11726641979E+03  0.24055464179E+02 -0.34675495705E+03  0.40517871328E+03  0.17204857131E+03 0.  0.
       24    2    3    3    0    0  0.63899731406E+02  0.29936161220E+01 -0.32270360174E+03  0.34279151456E+03  0.96313397117E+02 0.  0.
       -6    2    1    2    0  501 -0.11726641979E+03 -0.24055464179E+02 -0.90121394675E+03  0.92740454323E+03  0.18320079266E+03 0.  0.
      -24    2    5    5    0    0 -0.29740088379E+02 -0.41756840044E+02 -0.20298319362E+03  0.22347097250E+03  0.78160041640E+02 0.  0.
        5    1    3    3  502    0  0.53366688380E+02  0.21061848057E+02 -0.24051355307E+02  0.62387198722E+02  0.47000000000E+01 0. -1.
        2    1    4    4  503    0  0.43467062367E+02  0.27511538736E+02 -0.29806564794E+03  0.30247214873E+03  0.00000000000E+00 0. -1.
       -1    1    4    4    0  503  0.20432669038E+02 -0.24517922614E+02 -0.24637953803E+02  0.40319365830E+02  0.00000000000E+00 0.  1.
       -5    1    5    5    0  501 -0.87526331407E+02  0.17701375865E+02 -0.69823075313E+03  0.70393357074E+03  0.47000000000E+01 0.  1.
       11    1    6    6    0    0  0.16980544944E+02  0.14022666878E+00 -0.82565113885E+01  0.18881963628E+02  0.00000000000E+00 0. -1.
      -12    1    6    6    0    0 -0.46720633323E+02 -0.41897066713E+02 -0.19472668223E+03  0.20458900887E+03  0.00000000000E+00 0.  1.
</event>
<event>
12   0  0.1544783E-01  0.2017315E+03  0.7957747E-01  0.1154580E+00
       21   -1    0    0  501  503  0.00000000000E+00  0.00000000000E+00  0.44159153625E+03  0.44159153625E+03  0.00000000000E+00 0. -1.
       21   -1    0    0  503  504  0.00000000000E+00  0.00000000000E+00 -0.11648140402E+03  0.11648140402E+03  0.00000000000E+00 0. -1.
        6    2    1    2  501    0 -0.94214788337E+02 -0.44324198519E+02  0.29406815852E+03  0.35661141052E+03  0.17278470808E+03 0.  0.
       24    2    3    3    0    0 -0.21729234680E+01 -0.60997772475E+01  0.60293669396E+02  0.10243546155E+03  0.82557666728E+02 0.  0.
       -6    2    1    2    0  504  0.94214788337E+02  0.44324198519E+02  0.31041973716E+02  0.20146152975E+03  0.16965283057E+03 0.  0.
      -24    2    5    5    0    0  0.41072375908E+02  0.84575271990E+02  0.44074063193E+02  0.13337195440E+03  0.83699692233E+02 0.  0.
        5    1    3    3  501    0 -0.92041864869E+02 -0.38224421272E+02  0.23377448912E+03  0.25417594897E+03  0.47000000000E+01 0. -1.
        4    1    4    4  502    0 -0.41010451681E+02 -0.13666792375E+02  0.32473121246E+02  0.54066088858E+02  0.00000000000E+00 0. -1.
       -3    1    4    4    0  502  0.38837528213E+02  0.75670151272E+01  0.27820548150E+02  0.48369372696E+02  0.00000000000E+00 0.  1.
       -5    1    5    5    0  504  0.53142412430E+02 -0.40251073471E+02 -0.13032089478E+02  0.68089575345E+02  0.47000000000E+01 0.  1.
       11    1    6    6    0    0  0.41757144818E+02  0.37548019385E+01  0.13412627640E+01  0.41947069823E+02  0.00000000000E+00 0. -1.
      -12    1    6    6    0    0 -0.68476891036E+00  0.80820470052E+02  0.42732800429E+02  0.91424884580E+02  0.00000000000E+00 0.  1.
</event>
<event>
12   0  0.1544783E-01  0.4399316E+03  0.7957747E-01  0.1040311E+00
       -2   -1    0    0    0  501  0.00000000000E+00  0.00000000000E+00  0.20520367754E+03  0.20520367754E+03  0.00000000000E+00 0. -1.
        2   -1    0    0  502    0  0.00000000000E+00  0.00000000000E+00 -0.10142854031E+04  0.10142854031E+04  0.00000000000E+00 0.  1.
        6    2    1    2  502    0 -0.14392055232E+03  0.37817106580E+03 -0.24313169843E+03  0.50270434148E+03  0.17283562068E+03 0.  0.
       24    2    3    3    0    0 -0.95468922532E+02  0.21882946147E+03 -0.69167487640E+02  0.26182481987E+03  0.82264491569E+02 0.  0.
       -6    2    1    2    0  501  0.14392055232E+03 -0.37817106580E+03 -0.56595002708E+03  0.71678473912E+03  0.17249477872E+03 0.  0.
      -24    2    5    5    0    0  0.10883644138E+02 -0.21063392887E+03 -0.30966569458E+03  0.38291161909E+03  0.79014934873E+02 0.  0.
        5    1    3    3  502    0 -0.48451629787E+02  0.15934160433E+03 -0.17396421079E+03  0.24087952162E+03  0.47000000000E+01 0. -1.
        2    1    4    4  503    0 -0.26221618882E+02  0.99543271172E+02  0.89212768332E+01  0.10332485332E+03  0.00000000000E+00 0. -1.
       -1    1    4    4    0  503 -0.69247303649E+02  0.11928619030E+03 -0.78088764473E+02  0.15849996655E+03  0.00000000000E+00 0.  1.
       -5    1    5    5    0  501  0.13303690818E+03 -0.16753713694E+03 -0.25628433250E+03  0.33387312003E+03  0.47000000000E+01 0.  1.
       11    1    6    6    0    0  0.38574690826E+02 -0.17870456198E+03 -0.24602902081E+03  0.30651852525E+03  0.00000000000E+00 0. -1.
      -12    1    6    6    0    0 -0.27691046689E+02 -0.31929366885E+02 -0.63636673773E+02  0.76393093833E+02  0.00000000000E+00 0.  1.
</event>
<event>
12   0  0.1544783E-01  0.2226956E+03  0.7957747E-01  0.1138720E+00
        1   -1    0    0  502    0  0.00000000000E+00  0.00000000000E+00  0.65040285166E+03  0.65040285166E+03  0.00000000000E+00 0. -1.
       -1   -1    0    0    0  501  0.00000000000E+00  0.00000000000E+00 -0.76317743128E+02  0.76317743128E+02  0.00000000000E+00 0.  1.
        6    2    1    2  502    0 -0.38780662782E+02  0.13598759811E+03  0.27749296440E+03  0.35636868528E+03  0.17320429530E+03 0.  0.
       24    2    3    3    0    0 -0.12864894299E+02  0.57189814861E+02  0.44320818435E+02  0.10883675329E+03  0.80280280832E+02 0.  0.
       -6    2    1    2    0  501  0.38780662782E+02 -0.13598759811E+03  0.29659214413E+03  0.37035190951E+03  0.17087150223E+03 0.  0.
      -24    2    5    5    0    0 -0.42282403659E+02 -0.10281106325E+03  0.17210430394E+03  0.21806528646E+03  0.74663654722E+02 0.  0.
        5    1    3    3  502    0 -0.25915768483E+02  0.78797783245E+02  0.23317214597E+03  0.24753193199E+03  0.47000000000E+01 0. -1.
      -11    1    4    4    0    0  0.21427795028E+02 -0.10224752782E+02  0.95318385994E+01  0.25584212247E+02  0.00000000000E+00 0.  1.
       12    1    4    4    0    0 -0.34292689328E+02  0.67414567643E+02  0.34788979836E+02  0.83252541041E+02  0.00000000000E+00 0. -1.
       -5    1    5    5    0  501  0.81063066441E+02 -0.33176534853E+02  0.12448784020E+03  0.15228662306E+03  0.47000000000E+01 0.  1.
        1    1    6    6  503    0 -0.17946576216E+02 -0.31195836133E+02  0.12234391321E+03  0.12752761618E+03  0.00000000000E+00 0. -1.
       -2    1    6    6    0  503 -0.24335827443E+02 -0.71615227121E+02  0.49760390728E+02  0.90537670272E+02  0.00000000000E+00 0.  1.
</event>
<event>
12   0  0.1544783E-01  0.2381630E+03  0.7957747E-01  0.1128194E+00
       21   -1    0    0  501  503  0.00000000000E+00  0.00000000000E+00  0.24263825265E+03  0.24263825265E+03  0.00000000000E+00 0.  1.
       21   -1    0    0  503  504  0.00000000000E+00  0.00000000000E+00 -0.23609924089E+03  0.23609924089E+03  0.00000000000E+00 0.  1.
        6    2    1    2  501    0 -0.14023459299E+03 -0.49262072641E+02  0.57367254156E+02  0.23521102935E+03  0.17303390884E+03 0.  0.
       24    2    3    3    0    0 -0.38174710500E+02  0.24732098523E+02 -0.43804238714E+01  0.94760957363E+02  0.83014852334E+02 0.  0.
       -6    2    1    2    0  504  0.14023459299E+03  0.49262072641E+02 -0.50828242396E+02  0.24352646419E+03  0.18608905304E+03 0.  0.
      -24    2    5    5    0    0 -0.55214720325E+01  0.43584308121E+02 -0.87265684877E+01  0.91632723540E+02  0.79939504990E+02 0.  0.
        5    1    3    3  501    0 -0.10205988249E+03 -0.73994171164E+02  0.61747678027E+02  0.14045007199E+03  0.47000000000E+01 0. -1.
        2    1    4    4  502    0 -0.27695900952E+02 -0.11618332860E+02 -0.34979496948E+02  0.46104379345E+02  0.00000000000E+00 0. -1.
       -1    1    4    4    0  502 -0.10478809548E+02  0.36350431383E+02  0.30599073077E+02  0.48656578018E+02  0.00000000000E+00 0.  1.
       -5    1    5    5    0  504  0.14575606503E+03  0.56777645200E+01 -0.42101673908E+02  0.15189374065E+03  0.47000000000E+01 0.  1.
       13    1    6    6    0    0 -0.39438295631E+02  0.12372441355E+02 -0.17197041346E+02  0.44768233139E+02  0.00000000000E+00 0. -1.
      -14    1    6    6    0    0  0.33916823599E+02  0.31211866766E+02  0.84704728583E+01  0.46864490400E+02  0.00000000000E+00 0.  1.
</event>
<event>
12   0  0.1544783E-01  0.1962138E+03  0.7957747E-01  0.1159109E+00
       21   -1    0    0  504  503  0.00000000000E+00  0.00000000000E+00  0.10373747543E+03  0.10373747543E+03  0.00000000000E+00 0. -1.
       21   -1    0    0  501  504  0.00000000000E+00  0.00000000000E+00 -0.35085169214E+03  0.35085169214E+03  0.00000000000E+00 0. -1.
        6    2    1    2  501    0  0.68510880305E+02  0.59351156634E+02 -0.11198217700E+03  0.22592002605E+03  0.17402169316E+03 0.  0.
       24    2    3    3    0    0  0.10434189930E+02  0.71242376103E+02 -0.12283579000E+03  0.16547009652E+03  0.84305237464E+02 0.  0.
       -6    2    1    2    0  503 -0.68510880305E+02 -0.59351156634E+02 -0.13513203971E+03  0.22866914151E+03  0.16066302503E+03 0.  0.
      -24    2    5    5    0    0 -0.93854632399E+02 -0.63308860161E+02 -0.14490316230E+03  0.20082073000E+03  0.80717627278E+02 0.  0.
        5    1    3    3  501    0  0.58076690375E+02 -0.11891219469E+02  0.10853613005E+02  0.60449929533E+02  0.47000000000E+01 0. -1.
        4    1    4    4  502    0  0.45377244502E+02  0.35996650384E+02 -0.85898541240E+02  0.10360218407E+03  0.00000000000E+00 0. -1.
       -3    1    4    4    0  502 -0.34943054571E+02  0.35245725719E+02 -0.36937248761E+02  0.61867912445E+02  0.00000000000E+00 0.  1.
       -5    1    5    5    0  503  0.25343752094E+02  0.39577035263E+01  0.97711225916E+01  0.27848411519E+02  0.47000000000E+01 0.  1.
       13    1    6    6    0    0 -0.51754996906E+02 -0.60409619866E+02 -0.13620689914E+03  0.15773465457E+03  0.00000000000E+00 0. -1.
      -14    1    6    6    0    0 -0.42099635493E+02 -0.28992402949E+01 -0.86962631587E+01  0.43086075429E+02  0.00000000000E+00 0.  1.
</event>
<event>
12   0  0.1544783E-01  0.1846193E+03  0.7957747E-01  0.1169181E+00
       21   -1    0    0  501  503  0.00000000000E+00  0.00000000000E+00  0.88201000939E+03  0.88201000939E+03  0.00000000000E+00 0.  1.
       21   -1    0    0  503  504  0.00000000000E+00  0.00000000000E+00 -0.38205182628E+02  0.38205182628E+02  0.00000000000E+00 0. -1.
        6    2    1    2  501    0 -0.24116306330E+02 -0.64410991203E+02  0.40450892732E+03  0.44370163002E+03  0.16885879362E+03 0.  0.
       24    2    3    3    0    0 -0.41179802327E+02 -0.86108065721E+02  0.39493312211E+03  0.41410919883E+03  0.80024262065E+02 0.  0.
       -6    2    1    2    0  504  0.24116306330E+02  0.64410991203E+02  0.43929589944E+03  0.47651356200E+03  0.17132984411E+03 0.  0.
      -24    2    5    5    0    0  0.38215588191E+02 -0.10966432674E+02  0.13549238603E+03  0.16314602931E+03  0.81717479052E+02 0.  0.
        5    1    3    3  501    0  0.17063495997E+02  0.21697074518E+02  0.95758052185E+01  0.29592431192E+02  0.47000000000E+01 0. -1.
      -13    1    4    4    0    0 -0.52312806836E+02 -0.22211544597E+02  0.14097912120E+03  0.15200360222E+03  0.00000000000E+00 0.  1.
       14    1    4    4    0    0  0.11133004509E+02 -0.63896521123E+02  0.25395400090E+03  0.26210559661E+03  0.00000000000E+00 0. -1.
       -5    1    5    5    0  504 -0.14099281861E+02  0.75377423876E+02  0.30380351341E+03  0.31336753268E+03  0.47000000000E+01 0.  1.
        3    1    6    6  502    0  0.60547209547E+02 -0.60615809195E+01  0.64996553560E+02  0.89035157785E+02  0.00000000000E+00 0. -1.
       -4    1    6    6    0  502 -0.22331621356E+02 -0.49048517542E+01  0.70495832470E+02  0.74110871529E+02  0.00000000000E+00 0.  1.
</event>
<event>
12   0  0.1544783E-01  0.2249021E+03  0.7957747E-01  0.1137162E+00
       21   -1    0    0  504  503  0.00000000000E+00  0.00000000000E+00  0.39969886647E+03  0.39969886647E+03  0.00000000000E+00 0. -1.
       21   -1    0    0  501  504  0.00000000000E+00  0.00000000000E+00 -0.14665137479E+03  0.14665137479E+03  0.00000000000E+00 0. -1.
        6    2    1    2  501    0  0.43608248230E+02 -0.13409100368E+03  0.21348067426E+02  0.22344841404E+03  0.17202144393E+03 0.  0.
       24    2    3    3    0    0 -0.41301175315E+02 -0.90740926487E+02  0.13133199934E+02  0.12764437735E+03  0.78618721086E+02 0.  0.
       -6    2    1    2    0  503 -0.43608248230E+02  0.13409100368E+03  0.23169942426E+03  0.32290182723E+03  0.17521098779E+03 0.  0.
      -24    2    5    5    0    0  0.47016459472E+01  0.15026050198E+03  0.19542567766E+03  0.26018681114E+03  0.83100284438E+02 0.  0.
        5    1    3    3  501    0  0.84909423544E+02 -0.43350077198E+02  0.82148674916E+01  0.95804036698E+02  0.47000000000E+01 0. -1.
      -13    1    4    4    0    0 -0.23849943827E+02 -0.15843932117E+02  0.37309677513E+02  0.47030437395E+02  0.00000000000E+00 0.  1.
       14    1    4    4    0    0 -0.17451231488E+02 -0.74896994370E+02 -0.24176477579E+02  0.80613939950E+02  0.00000000000E+00 0. -1.
       -5    1    5    5    0  503 -0.48309894177E+02 -0.16169498291E+02  0.36273746591E+02  0.62715016082E+02  0.47000000000E+01 0.  1.
        1    1    6    6  502    0  0.34271224731E+02  0.33988723409E+02  0.81614202052E+02  0.94818922901E+02  0.00000000000E+00 0. -1.
       -2    1    6    6    0  502 -0.29569578784E+02  0.11627177857E+03  0.11381147561E+03  0.16536788824E+03  0.00000000000E+00 0.  1.
</event>
<event>
12   0  0.1544783E-01  0.1991183E+03  0.7957747E-01  0.1156705E+00
       21   -1    0    0  504  503  0.00000000000E+00  0.00000000000E+00  0.35604370813E+03  0.35604370813E+03  0.00000000000E+00 0. -1.
       21   -1    0    0  501  504  0.00000000000E+00  0.00000000000E+00 -0.11705388179E+03  0.11705388179E+03  0.00000000000E+00 0. -1.
        6    2    1    2  501    0  0.61675365567E+02 -0.70770534920E+02  0.17773786360E+03  0.26690608732E+03  0.17560122995E+03 0.  0.
       24    2    3    3    0    0  0.76946557804E+02 -0.38470415003E+02  0.38241200346E+02  0.12283000978E+03  0.78892815330E+02 0.  0.
       -6    2    1    2    0  503 -0.61675365567E+02  0.70770534920E+02  0.61251962739E+02  0.20619150260E+03  0.17306303324E+03 0.  0.
      -24    2    5    5    0    0 -0.85867740194E+02  0.25955625446E+02  0.85222650239E+02  0.14970848781E+03  0.84277920650E+02 0.  0.
        5    1    3    3  501    0 -0.15271192237E+02 -0.32300119917E+02  0.13949666325E+03  0.14407607754E+03  0.47000000000E+01 0. -1.
      -11    1    4    4    0    0  0.35615485757E+02  0.51964111481E+01 -0.18227700185E+02  0.40344944771E+02  0.00000000000E+00 0.  1.
       12    1    4    4    0    0  0.41331072048E+02 -0.43666826151E+02  0.56468900531E+02  0.82485065011E+02  0.00000000000E+00 0. -1.
       -5    1    5    5    0  503  0.24192374627E+02  0.44814909474E+02 -0.23970687499E+02  0.56483014796E+02  0.47000000000E+01 0.  1.
        3    1    6    6  502    0 -0.97861067933E+01 -0.20246111059E+02  0.48423787780E+02  0.53390412268E+02  0.00000000000E+00 0. -1.
       -4    1    6    6    0  502 -0.76081633401E+02  0.46201736505E+02  0.36798862458E+02  0.96318075538E+02  0.00000000000E+00 0.  1.
</event>
<event>
12   0  0.1544783E-01  0.2384529E+03  0.7957747E-01  0.1128005E+00
       21   -1    0    0  504  503  0.00000000000E+00  0.00000000000E+00  0.54481083654E+03  0.54481083654E+03  0.00000000000E+00 0. -1.
       21   -1    0    0  501  504  0.00000000000E+00  0.00000000000E+00 -0.10906915864E+03  0.10906915864E+03  0.00000000000E+00 0. -1.
        6    2    1    2  501    0 -0.13811643895E+03  0.89197904915E+02  0.14889857095E+03  0.28112373781E+03  0.17270597726E+03 0.  0.
       24    2    3    3    0    0 -0.91286635252E+02  0.15112403884E+02  0.20142210092E+02  0.12529696720E+03  0.82048685767E+02 0.  0.
       -6    2    1    2    0  503  0.13811643895E+03 -0.89197904915E+02  0.28684310695E+03  0.37275625737E+03  0.17215063884E+03 0.  0.
      -24    2    5    5    0    0  0.54619359359E+02 -0.31939200093E+02  0.49517569572E+02  0.11469459367E+03  0.81850309722E+02 0.  0.
        5    1    3    3  501    0 -0.46829803699E+02  0.74085501031E+02  0.12875636086E+03  0.15582677061E+03  0.47000000000E+01 0. -1.
      -13    1    4    4    0    0 -0.76322591832E+02 -0.20305138695E+02  0.31770351627E+02  0.85128091274E+02  0.00000000000E+00 0.  1.
       14    1    4    4    0    0 -0.14964043419E+02  0.35417542580E+02 -0.11628141535E+02  0.40168875929E+02  0.00000000000E+00 0. -1.
       -5    1    5    5    0  503  0.83497079592E+02 -0.57258704822E+02  0.23732553738E+03  0.25806166370E+03  0.47000000000E+01 0.  1.
        3    1    6    6  502    0 -0.12133806248E+02 -0.30252189677E+02  0.18415328240E+01  0.32646829516E+02  0.00000000000E+00 0. -1.
       -4    1    6    6    0  502  0.66753165607E+02 -0.16870104166E+01  0.47676036748E+02  0.82047764155E+02  0.00000000000E+00 0.  1.
</event>
<event>
12   0  0.1544783E-01  0.1860613E+03  0.7957747E-01  0.1167885E+00
       21   -1    0    0  504  503  0.00000000000E+00  0.00000000000E+00  0.61250718245E+02  0.61250718245E+02  0.00000000000E+00 0.  1.
       21   -1    0    0  501  504  0.00000000000E+00  0.00000000000E+00 -0.55343660751E+03  0.55343660751E+03  0.00000000000E+00 0.  1.
        6    2    1    2  501    0  0.10350752534E+02 -0.45145682667E+02 -0.24228459932E+03  0.30312763087E+03  0.17617963216E+03 0.  0.
       24    2    3    3    0    0  0.69606986006E+02 -0.87760769969E+01 -0.10410773345E+03  0.14837303260E+03  0.79082138386E+02 0.  0.
       -6    2    1    2    0  503 -0.10350752534E+02  0.45145682667E+02 -0.24990128995E+03  0.31155969489E+03  0.18020410101E+03 0.  0.
      -24    2    5    5    0    0 -0.18998065053E+02  0.98312037150E+02 -0.19302670541E+03  0.23308520458E+03  0.83923896883E+02 0.  0.
        5    1    3    3  501    0 -0.59256233473E+02 -0.36369605670E+02 -0.13817686587E+03  0.15475459827E+03  0.47000000000E+01 0. -1.
      -11    1    4    4    0    0  0.30456758946E+02 -0.12102877991E+02  0.43096238096E+01  0.33055509050E+02  0.00000000000E+00 0.  1.
       12    1    4    4    0    0  0.39150227060E+02  0.33268009940E+01 -0.10841735726E+03  0.11531752355E+03  0.00000000000E+00 0. -1.
       -5    1    5    5    0  503  0.86473125194E+01 -0.53166354483E+02 -0.56874584531E+02  0.78474490304E+02  0.47000000000E+01 0.  1.
        3    1    6    6  502    0 -0.13485878317E+02  0.26827717349E+02 -0.32320711310E+01  0.30200026754E+02  0.00000000000E+00 0. -1.
       -4    1    6    6    0  502 -0.55121867356E+01  0.71484319801E+02 -0.18979463428E+03  0.20288517783E+03  0.00000000000E+00 0.  1.
</event>
<event>
12   0  0.1544783E-01  0.2113979E+03  0.7957747E-01  0.1147017E+00
        2   -1    0    0  502    0  0.00000000000E+00  0.00000000000E+00  0.11476515104E+04  0.11476515104E+04  0.00000000000E+00 0. -1.
       -2   -1    0    0    0  501  0.00000000000E+00  0.00000000000E+00 -0.39632284739E+02  0.39632284739E+02  0.00000000000E+00 0.  1.
        6    2    1    2  502    0  0.94918895640E+02 -0.73802567517E+02  0.47694022430E+03  0.52191121914E+03  0.17453632111E+03 0.  0.
       24    2    3    3    0    0  0.24536508793E+01 -0.12277076856E+02  0.93681956464E+02  0.12285709079E+03  0.78490819663E+02 0.  0.
       -6    2    1    2    0  501 -0.94918895640E+02  0.73802567517E+02  0.63107900138E+03  0.66537257602E+03  0.17321530883E+03 0.  0.
      -24    2    5    5    0    0 -0.13510236633E+03  0.61695655944E+02  0.51930511597E+03  0.54588709538E+03  0.79094336541E+02 0.  0.
        5    1    3    3  502    0  0.92465244761E+02 -0.61525490661E+02  0.38325826784E+03  0.39905412835E+03  0.47000000000E+01 0. -1.
        2    1    4    4  503    0  0.16470145693E+02  0.29464057476E+02  0.28396084104E+02  0.44110474658E+02  0.00000000000E+00 0. -1.
       -1    1    4    4    0  503 -0.14016494814E+02 -0.41741134332E+02  0.65285872360E+02  0.78746616130E+02  0.00000000000E+00 0.  1.
       -5    1    5    5    0  501  0.40183470693E+02  0.12106911573E+02  0.11177388541E+03  0.11948548064E+03  0.47000000000E+01 0.  1.
       11    1    6    6    0    0 -0.68965641641E+01  0.37087976327E+02  0.11581354676E+03  0.12180253774E+03  0.00000000000E+00 0. -1.
      -12    1    6    6    0    0 -0.12820580217E+03  0.24607679617E+02  0.40349156921E+03  0.42408455764E+03  0.00000000000E+00 0.  1.
</event>
<event>
12   0  0.1544783E-01  0.1771976E+03  0.7957747E-01  0.1176065E+00
       -1   -1    0    0    0  501  0.00000000000E+00  0.00000000000E+00  0.67548981927E+02  0.67548981927E+02  0.00000000000E+00 0.  1.
        1   -1    0    0  502    0  0.00000000000E+00  0.00000000000E+00 -0.76308285415E+03  0.76308285415E+03  0.00000000000E+00 0. -1.
        6    2    1    2  502    0  0.21183781030E+02 -0.33868913267E+02 -0.60714226079E+03  0.63240850564E+03  0.17240341441E+03 0.  0.
       24    2    3    3    0    0  0.38723859865E+02 -0.76763813820E+01 -0.15287832744E+03  0.17702787997E+03  0.80053876430E+02 0.  0.
       -6    2    1    2    0  501 -0.21183781030E+02  0.33868913267E+02 -0.88391611429E+02  0.19822333044E+03  0.17286860876E+03 0.  0.
      -24    2    5    5    0    0 -0.54889019480E+01 -0.13466071374E+02 -0.11555074686E+03  0.14124404791E+03  0.79915222880E+02 0.  0.
        5    1    3    3  502    0 -0.17540078834E+02 -0.26192531885E+02 -0.45426393335E+03  0.45538062567E+03  0.47000000000E+01 0. -1.
      -13    1    4    4    0    0 -0.12693547620E+02 -0.15623041405E+02 -0.56954903941E+01  0.20919947054E+02  0.00000000000E+00 0.  1.
       14    1    4    4    0    0  0.51417407485E+02  0.79466600227E+01 -0.14718283705E+03  0.15610793292E+03  0.00000000000E+00 0. -1.
       -5    1    5    5    0  501 -0.15694879082E+02  0.47334984641E+02  0.27159135426E+02  0.56979282528E+02  0.47000000000E+01 0.  1.
        3    1    6    6  503    0  0.36056191107E+02 -0.14864965552E+02 -0.64934129005E+02  0.75746004698E+02  0.00000000000E+00 0. -1.
       -4    1    6    6    0  503 -0.41545093055E+02  0.13988941777E+01 -0.50616617850E+02  0.65498043211E+02  0.00000000000E+00 0.  1.
</event>
<event>
12   0  0.1544783E-01  0.1968511E+03  0.7957747E-01  0.1158578E+00
       21   -1    0    0  501  503  0.00000000000E+00  0.00000000000E+00  0.54552758880E+03  0.54552758880E+03  0.00000000000E+00 0.  1.
       21   -1    0    0  503  504  0.00000000000E+00  0.00000000000E+00 -0.14240487369E+03  0.14240487369E+03  0.00000000000E+00 0.  1.
        6    2    1    2  501    0 -0.34736468201E+02  0.82573650902E+02  0.44674801751E+03  0.48819478611E+03  0.17528641699E+03 0.  0.
       24    2    3    3    0    0 -0.91129535906E+02  0.58753623769E+02  0.29474659406E+03  0.32426158474E+03  0.80705885836E+02 0.  0.
       -6    2    1    2    0  504  0.34736468201E+02 -0.82573650902E+02 -0.43625302403E+02  0.19973767638E+03  0.17310962513E+03 0.  0.
      -24    2    5    5    0    0 -0.16095605986E+02 -0.53117220495E+02  0.33507855124E+02  0.10266453361E+03  0.79603532965E+02 0.  0.
        5    1    3    3  501    0  0.56393067705E+02  0.23820027133E+02  0.15200142345E+03  0.16393320136E+03  0.47000000000E+01 0. -1.
      -13    1    4    4    0    0 -0.13748484733E+02  0.47529360908E+02  0.16983711786E+03  0.17689744934E+03  0.00000000000E+00 0.  1.
       14    1    4    4    0    0 -0.77381051173E+02  0.11224262862E+02  0.12490947620E+03  0.14736413540E+03  0.00000000000E+00 0. -1.
       -5    1    5    5    0  504  0.50832074188E+02 -0.29456430407E+02 -0.77133157527E+02  0.97073142777E+02  0.47000000000E+01 0.  1.
        1    1    6    6  502    0  0.21796585757E+02 -0.50496920037E+02  0.51051103556E+01  0.55236692838E+02  0.00000000000E+00 0. -1.
       -2    1    6    6    0  502 -0.37892191744E+02 -0.26203004576E+01  0.28402744768E+02  0.47427840769E+02  0.00000000000E+00 0.  1.
</event>
<event>
12   0  0.1544783E-01  0.1810222E+03  0.7957747E-01  0.1172472E+00
        2   -1    0    0  502    0  0.00000000000E+00  0.00000000000E+00  0.47273318113E+02  0.47273318113E+02  0.00000000000E+00 0.  1.
       -2   -1    0    0    0  501  0.00000000000E+00  0.00000000000E+00 -0.70030569216E+03  0.70030569216E+03  0.00000000000E+00 0. -1.
        6    2    1    2  502    0  0.99583216857E+01  0.48564500000E+02 -0.36448497381E+03  0.40703023890E+03  0.17426026633E+03 0.  0.
       24    2    3    3    0    0 -0.59055863559E+02  0.12305435873E+02 -0.17817153636E+03  0.20500928834E+03  0.81514987341E+02 0.  0.
       -6    2    1    2    0  501 -0.99583216857E+01 -0.48564500000E+02 -0.28854740024E+03  0.34054877137E+03  0.17394305006E+03 0.  0.
      -24    2    5    5    0    0  0.34083924785E+02 -0.21692160900E+02 -0.27188066284E+03  0.28612715601E+03  0.79482015606E+02 0.  0.
        5    1    3    3  502    0  0.69014185245E+02  0.36259064127E+02 -0.18631343744E+03  0.20202095057E+03  0.47000000000E+01 0. -1.
      -11    1    4    4    0    0 -0.26275956061E+02  0.46888468193E+02 -0.93021370578E+02  0.10743337331E+03  0.00000000000E+00 0.  1.
       12    1    4    4    0    0 -0.32779907498E+02 -0.34583032320E+02 -0.85150165785E+02  0.97575915026E+02  0.00000000000E+00 0. -1.
       -5    1    5    5    0  501 -0.44042246471E+02 -0.26872339100E+02 -0.16666737398E+02  0.54421615360E+02  0.47000000000E+01 0.  1.
        1    1    6    6  503    0  0.19622145709E+02 -0.37149741577E+02 -0.60315831268E+02  0.73505995694E+02  0.00000000000E+00 0. -1.
       -2    1    6    6    0  503  0.14461779076E+02  0.15457580677E+02 -0.21156483158E+03  0.21262116032E+03  0.00000000000E+00 0.  1.
</event>
<event>
12   0  0.1544783E-01  0.2844438E+03  0.7957747E-01  0.1101272E+00
       21   -1    0    0  501  503  0.00000000000E+00  0.00000000000E+00  0.26702596009E+03  0.26702596009E+03  0.00000000000E+00 0. -1.
       21   -1    0    0  503  504  0.00000000000E+00  0.00000000000E+00 -0.75337518765E+03  0.75337518765E+03  0.00000000000E+00 0.  1.
        6    2    1    2  501    0 -0.34598158262E+02  0.22237610229E+03  0.15149318919E+03  0.32200927595E+03  0.17346937482E+03 0.  0.
       24    2    3    3    0    0 -0.53196124192E+02  0.51710857659E+02  0.35427832801E+02  0.11472742191E+03  0.80021306983E+02 0.  0.
       -6    2    1    2    0  504  0.34598158262E+02 -0.22237610229E+03 -0.63784241675E+03  0.69839187179E+03  0.17395428868E+03 0.  0.
      -24    2    5    5    0    0  0.33115081073E+02 -0.54463481729E+02 -0.37556144210E+03  0.38692719109E+03  0.67848175906E+02 0.  0.
        5    1    3    3  501    0  0.18597965930E+02  0.17066524463E+03  0.11606535639E+03  0.20728185404E+03  0.47000000000E+01 0. -1.
      -11    1    4    4    0    0 -0.15666572617E+02  0.21599566487E+02 -0.25623859194E+02  0.36994120208E+02  0.00000000000E+00 0.  1.
       12    1    4    4    0    0 -0.37529551575E+02  0.30111291172E+02  0.61051691994E+02  0.77733301698E+02  0.00000000000E+00 0. -1.
       -5    1    5    5    0  504  0.14830771892E+01 -0.16791262056E+03 -0.26228097465E+03  0.31146468070E+03  0.47000000000E+01 0.  1.
        3    1    6    6  502    0 -0.18697922745E+02 -0.20272816717E+02 -0.72390187414E+02  0.77465725624E+02  0.00000000000E+00 0. -1.
       -4    1    6    6    0  502  0.51813003818E+02 -0.34190665012E+02 -0.30317125469E+03  0.30946146547E+03  0.00000000000E+00 0.  1.
</event>
<event>
12   0  0.1544783E-01  0.1808471E+03  0.7957747E-01  0.1172635E+00
       21   -1    0    0  504  503  0.00000000000E+00  0.00000000000E+00  0.33260564830E+02  0.33260564830E+02  0.00000000000E+00 0. -1.
       21   -1    0    0  501  504  0.00000000000E+00  0.00000000000E+00 -0.98756587856E+03  0.98756587856E+03  0.00000000000E+00 0. -1.
        6    2    1    2  501    0 -0.72845324133E+01  0.50074552676E+02 -0.43591749454E+03  0.47179857084E+03  0.17323193747E+03 0.  0.
       24    2    3    3    0    0 -0.32797119496E+02  0.56820553956E+01 -0.39908384209E+03  0.40854990391E+03  0.80852793225E+02 0.  0.
       -6    2    1    2    0  503  0.72845324133E+01 -0.50074552676E+02 -0.51838781919E+03  0.54902787255E+03  0.17362358284E+03 0.  0.
      -24    2    5    5    0    0  0.22712730476E+02  0.16870284172E+02 -0.34387651499E+03  0.36142210033E+03  0.10758439680E+03 0.  0.
        5    1    3    3  501    0  0.25512587082E+02  0.44392497280E+02 -0.36833652454E+02  0.63248666923E+02  0.47000000000E+01 0. -1.
      -13    1    4    4    0    0 -0.19260793613E+02 -0.22940728048E+02 -0.51888677203E+02  0.59914021696E+02  0.00000000000E+00 0.  1.
       14    1    4    4    0    0 -0.13536325883E+02  0.28622783444E+02 -0.34719516488E+03  0.34863588222E+03  0.00000000000E+00 0. -1.
       -5    1    5    5    0  503 -0.15428198063E+02 -0.66944836848E+02 -0.17451130420E+03  0.18760577222E+03  0.47000000000E+01 0.  1.
        1    1    6    6  502    0 -0.12292336099E+02 -0.40405529672E+02 -0.16638246575E+03  0.17165906112E+03  0.00000000000E+00 0. -1.
       -2    1    6    6    0  502  0.35005066575E+02  0.57275813845E+02 -0.17749404923E+03  0.18976303921E+03  0.00000000000E+00 0.  1.
</event>
<event>
12   0  0.1544783E-01  0.2376103E+03  0.7957747E-01  0.1128555E+00
       -2   -1    0    0    0  501  0.00000000000E+00  0.00000000000E+00  0.76873981290E+02  0.76873981290E+02  0.00000000000E+00 0.  1.
        2   -1    0    0  502    0  0.00000000000E+00  0.00000000000E+00 -0.84448069149E+03  0.84448069149E+03  0.00000000000E+00 0. -1.
        6    2    1    2  502    0 -0.78559996163E+02 -0.13405594389E+03 -0.54283079102E+03  0.59059806445E+03  0.17319970254E+03 0.  0.
       24    2    3    3    0    0 -0.32618279791E+02  0.38656943621E+01 -0.19737449175E+03  0.21577121868E+03  0.80756628513E+02 0.  0.
       -6    2    1    2    0  501  0.78559996163E+02  0.13405594389E+03 -0.22477591918E+03  0.33075660833E+03  0.18636805258E+03 0.  0.
      -24    2    5    5    0    0  0.41249715101E+02  0.77286381298E+02 -0.26109841016E+02  0.12074436840E+03  0.78884440619E+02 0.  0.
        5    1    3    3  502    0 -0.45941716371E+02 -0.13792163825E+03 -0.34545629927E+03  0.37482684576E+03  0.47000000000E+01 0. -1.
      -11    1    4    4    0    0  0.20008621399E+02 -0.20972108749E+02 -0.66230725457E+02  0.72295803960E+02  0.00000000000E+00 0.  1.
       12    1    4    4    0    0 -0.52626901190E+02  0.24837803111E+02 -0.13114376629E+03  0.14347541472E+03  0.00000000000E+00 0. -1.
       -5    1    5    5    0  501  0.37310281062E+02  0.56769562588E+02 -0.19866607817E+03  0.21001223994E+03  0.47000000000E+01 0.  1.
        1    1    6    6  503    0  0.23207178797E+02 -0.58843196643E+01 -0.26399155689E+02  0.35638655793E+02  0.00000000000E+00 0. -1.
       -2    1    6    6    0  503  0.18042536303E+02  0.83170700963E+02  0.28931467367E+00  0.85105712604E+02  0.00000000000E+00 0.  1.
</event>
<event>
12   0  0.1544783E-01  0.1925947E+03  0.7957747E-01  0.1162169E+00
       21   -1    0    0  501  503  0.00000000000E+00  0.00000000000E+00  0.65985311334E+03  0.65985311334E+03  0.00000000000E+00 0.  1.
       21   -1    0    0  503  504  0.00000000000E+00  0.00000000000E+00 -0.12505338730E+03  0.12505338730E+03  0.00000000000E+00 0.  1.
        6    2    1    2  501    0  0.37334992861E+02 -0.79569848682E+02  0.55926890395E+03  0.59076363366E+03  0.16880373641E+03 0.  0.
       24    2    3    3    0    0  0.79760395388E+02 -0.42023243452E+02  0.44274332361E+03  0.46111039144E+03  0.92051446687E+02 0.  0.
       -6    2    1    2    0  504 -0.37334992861E+02  0.79569848682E+02 -0.24469177904E+02  0.19414286697E+03  0.17136933687E+03 0.  0.
      -24    2    5    5    0    0 -0.78871740416E+02  0.42012676895E+02 -0.52903425470E+02  0.13116319577E+03  0.80119879197E+02 0.  0.
        5    1    3    3  501    0 -0.42425402527E+02 -0.37546605229E+02  0.11652558034E+03  0.12965324222E+03  0.47000000000E+01 0. -1.
        4    1    4    4  502    0  0.86854085043E+02 -0.10251442251E+02  0.23333077978E+03  0.24918261767E+03  0.00000000000E+00 0. -1.
       -3    1    4    4    0  502 -0.70936896551E+01 -0.31771801201E+02  0.20941254382E+03  0.21192777377E+03  0.00000000000E+00 0.  1.
       -5    1    5    5    0  504  0.41536747555E+02  0.37557171787E+02  0.28434247566E+02  0.62979671202E+02  0.47000000000E+01 0.  1.
       11    1    6    6    0    0 -0.20815547785E+02  0.11938501622E+02  0.21425554782E+02  0.32169383710E+02  0.00000000000E+00 0. -1.
      -12    1    6    6    0    0 -0.58056192631E+02  0.30074175273E+02 -0.74328980252E+02  0.98993812062E+02  0.00000000000E+00 0.  1.
</event>
<event>
12   0  0.1544783E-01  0.2521840E+03  0.7957747E-01  0.1119379E+00
        2   -1    0    0  502    0  0.00000000000E+00  0.00000000000E+00  0.11569479243E+04  0.11569479243E+04  0.00000000000E+00 0.  1.
       -2   -1    0    0    0  501  0.00000000000E+00  0.00000000000E+00 -0.65820484656E+02  0.65820484656E+02  0.00000000000E+00 0. -1.
        6    2    1    2  502    0  0.13246052874E+03  0.11943568163E+03  0.29063523019E+03  0.38233571018E+03  0.17291930062E+03 0.  0.
       24    2    3    3    0    0  0.14194756075E+03  0.14615931667E+03  0.26671699126E+03  0.34494147800E+03  0.79592800961E+02 0.  0.
       -6    2    1    2    0  501 -0.13246052874E+03 -0.11943568163E+03  0.80049220948E+03  0.84043269881E+03  0.18365366881E+03 0.  0.
      -24    2    5    5    0    0 -0.89044843637E+02 -0.66861057910E+02  0.24824712057E+03  0.28397448744E+03  0.81335671161E+02 0.  0.
        5    1    3    3  502    0 -0.94870320024E+01 -0.26723635049E+02  0.23918238931E+02  0.37394232175E+02  0.47000000000E+01 0. -1.
        2    1    4    4  503    0  0.88137146408E+02  0.12837331709E+03  0.15521219705E+03  0.21986061773E+03  0.00000000000E+00 0. -1.
       -1    1    4    4    0  503  0.53810414339E+02  0.17785999585E+02  0.11150479422E+03  0.12508086027E+03  0.00000000000E+00 0.  1.
       -5    1    5    5    0  501 -0.43415685108E+02 -0.52574623716E+02  0.55224508891E+03  0.55645821137E+03  0.47000000000E+01 0.  1.
       13    1    6    6    0    0  0.20137833765E+01 -0.38610792560E+02  0.10507807521E+03  0.11196539874E+03  0.00000000000E+00 0. -1.
      -14    1    6    6    0    0 -0.91058627014E+02 -0.28250265350E+02  0.14316904536E+03  0.17200908870E+03  0.00000000000E+00 0.  1.
</event>
<event>
12   0  0.1544783E-01  0.2142550E+03  0.7957747E-01  0.1144866E+00
       21   -1    0    0  501  503  0.00000000000E+00  0.00000000000E+00  0.17460857863E+03  0.17460857863E+03  0.00000000000E+00 0. -1.
       21   -1    0    0  503  504  0.00000000000E+00  0.00000000000E+00 -0.41957638487E+03  0.41957638487E+03  0.00000000000E+00 0. -1.
        6    2    1    2  501    0 -0.15521998314E+02 -0.12098839666E+03  0.61722690365E+02  0.22006698858E+03  0.17245481843E+03 0.  0.
       24    2    3    3    0    0 -0.35918778881E+02 -0.14944267106E+03  0.40774361032E+02  0.17899879053E+03  0.82187273257E+02 0.  0.
       -6    2    1    2    0  504  0.15521998314E+02  0.12098839666E+03 -0.30669049660E+03  0.37411797492E+03  0.17614219794E+03 0.  0.
      -24    2    5    5    0    0 -0.36608371603E+01  0.14320945090E+03 -0.30224739304E+03  0.34405824110E+03  0.80624054156E+02 0.  0.
        5    1    3    3  501    0  0.20396780567E+02  0.28454274397E+02  0.20948329333E+02  0.41068198047E+02  0.47000000000E+01 0. -1.
      -11    1    4    4    0    0 -0.11678461667E+02 -0.47612892977E+02 -0.25346557421E+02  0.55188966448E+02  0.00000000000E+00 0.  1.
       12    1    4    4    0    0 -0.24240317214E+02 -0.10182977808E+03  0.66120918453E+02  0.12380982409E+03  0.00000000000E+00 0. -1.
       -5    1    5    5    0  504  0.19182835474E+02 -0.22221054239E+02 -0.44431035567E+01  0.30059733823E+02  0.47000000000E+01 0.  1.
        1    1    6    6  502    0  0.25024355587E+02  0.88578511203E+02 -0.23704101400E+03  0.25428490584E+03  0.00000000000E+00 0. -1.
       -2    1    6    6    0  502 -0.28685192748E+02  0.54630939700E+02 -0.65206379046E+02  0.89773335260E+02  0.00000000000E+00 0.  1.
</event>
<event>
12   0  0.1544783E-01  0.3128438E+03  0.7957747E-01  0.1087366E+00
       21   -1    0    0  501  503  0.00000000000E+00  0.00000000000E+00  0.24774663166E+03  0.24774663166E+03  0.00000000000E+00 0. -1.
       21   -1    0    0  503  504  0.00000000000E+00  0.00000000000E+00 -0.41285831501E+03  0.41285831501E+03  0.00000000000E+00 0.  1.
        6    2    1    2  501    0  0.19750257602E+03 -0.17005833078E+03 -0.19781835623E+01  0.30778234382E+03  0.16370386237E+03 0.  0.
       24    2    3    3    0    0  0.14116576841E+03 -0.11128104774E+03  0.61341118259E+02  0.20453492798E+03  0.75898341359E+02 0.  0.
       -6    2    1    2    0  504 -0.19750257602E+03  0.17005833078E+03 -0.16313349979E+03  0.35282260285E+03  0.17304377170E+03 0.  0.
      -24    2    5    5    0    0 -0.13758206791E+03  0.82341320635E+02 -0.16896442696E+03  0.24632926563E+03  0.80126219389E+02 0.  0.
        5    1    3    3  501    0  0.56336807613E+02 -0.58777283043E+02 -0.63319301822E+02  0.10324741584E+03  0.47000000000E+01 0. -1.
        4    1    4    4  502    0  0.22567638381E+02 -0.60601430254E+02  0.32509897408E+02  0.72379037576E+02  0.00000000000E+00 0. -1.
       -3    1    4    4    0  502  0.11859813003E+03 -0.50679617481E+02  0.28831220852E+02  0.13215589041E+03  0.00000000000E+00 0.  1.
       -5    1    5    5    0  504 -0.59920508114E+02  0.87717010143E+02  0.58309271648E+01  0.10649333722E+03  0.47000000000E+01 0.  1.
       11    1    6    6    0    0 -0.28980418414E+02  0.38252728243E+02 -0.10328901836E+02  0.49089938710E+02  0.00000000000E+00 0. -1.
      -12    1    6    6    0    0 -0.10860164949E+03  0.44088592393E+02 -0.15863552512E+03  0.19723932691E+03  0.00000000000E+00 0.  1.
</event>
<event>
12   0  0.1544783E-01  0.1747188E+03  0.7957747E-01  0.1178448E+00
       21   -1    0    0  504  503  0.00000000000E+00  0.00000000000E+00  0.14697948659E+04  0.14697948659E+04  0.00000000000E+00 0.  1.
       21   -1    0    0  501  504  0.00000000000E+00  0.00000000000E+00 -0.20389540825E+02  0.20389540825E+02  0.00000000000E+00 0.  1.
        6    2    1    2  501    0 -0.24677109090E+02 -0.14747404076E+02  0.65259438894E+03  0.67557834988E+03  0.17233753135E+03 0.  0.
       24    2    3    3    0    0 -0.73801485148E+02 -0.43364556860E+02  0.38616998606E+03  0.40311514464E+03  0.77765144556E+02 0.  0.
       -6    2    1    2    0  503  0.24677109090E+02  0.14747404076E+02  0.79681093618E+03  0.81460605689E+03  0.16687993967E+03 0.  0.
      -24    2    5    5    0    0 -0.10399997249E+02 -0.78839019349E+01  0.18822563613E+03  0.20457266696E+03  0.79061811989E+02 0.  0.
        5    1    3    3  501    0  0.49124376058E+02  0.28617152783E+02  0.26642440289E+03  0.27246320524E+03  0.47000000000E+01 0. -1.
      -13    1    4    4    0    0 -0.54823847140E+02  0.97533979693E+01  0.24152415028E+03  0.24786023915E+03  0.00000000000E+00 0.  1.
       14    1    4    4    0    0 -0.18977638008E+02 -0.53117954829E+02  0.14464583578E+03  0.15525490549E+03  0.00000000000E+00 0. -1.
       -5    1    5    5    0  503  0.35077106339E+02  0.22631306011E+02  0.60858530004E+03  0.61003338993E+03  0.47000000000E+01 0.  1.
        1    1    6    6  502    0 -0.12796757153E+02  0.22144423431E+02  0.16983984104E+02  0.30701599287E+02  0.00000000000E+00 0. -1.
       -2    1    6    6    0  502  0.23967599040E+01 -0.30028325366E+02  0.17124165203E+03  0.17387106767E+03  0.00000000000E+00 0.  1.
</event>
<event>
12   0  0.1544783E-01  0.1972233E+03  0.7957747E-01  0.1158269E+00
       21   -1    0    0  501  503  0.00000000000E+00  0.00000000000E+00  0.26100264563E+03  0.26100264563E+03  0.00000000000E+00 0. -1.
       21   -1    0    0  503  504  0.00000000000E+00  0.00000000000E+00 -0.19289302008E+03  0.19289302008E+03  0.00000000000E+00 0. -1.
        6    2    1    2  501    0 -0.92109129318E+02 -0.26922328182E+02  0.14339201528E+03  0.24279272312E+03  0.17081607914E+03 0.  0.
       24    2    3    3    0    0 -0.36318234472E+00  0.27699005680E+02  0.36342200853E+02  0.91522892455E+02  0.79298912121E+02 0.  0.
       -6    2    1    2    0  504  0.92109129318E+02  0.26922328182E+02 -0.75282389734E+02  0.21110294259E+03  0.17230238161E+03 0.  0.
      -24    2    5    5    0    0  0.18897685386E+01  0.54084403768E+02 -0.19333058099E+02  0.10142282079E+03  0.83571092398E+02 0.  0.
        5    1    3    3  501    0 -0.91745946973E+02 -0.54621333862E+02  0.10704981443E+03  0.15126983066E+03  0.47000000000E+01 0. -1.
      -11    1    4    4    0    0 -0.33342735785E+02  0.15722776183E+02 -0.51083220507E+01  0.37216107732E+02  0.00000000000E+00 0.  1.
       12    1    4    4    0    0  0.32979553440E+02  0.11976229497E+02  0.41450522903E+02  0.54306784724E+02  0.00000000000E+00 0. -1.
       -5    1    5    5    0  504  0.90219360779E+02 -0.27162075586E+02 -0.55949331636E+02  0.10968012181E+03  0.47000000000E+01 0.  1.
        3    1    6    6  502    0 -0.74595207514E+01 -0.21738130248E+02 -0.70906505149E+01  0.24051363397E+02  0.00000000000E+00 0. -1.
       -4    1    6    6    0  502  0.93492892900E+01  0.75822534017E+02 -0.12242407584E+02  0.77371457388E+02  0.00000000000E+00 0.  1.
</event>
<event>
12   0  0.1544783E-01  0.2641747E+03  0.7957747E-01  0.1112322E+00
       21   -1    0    0  501  503  0.00000000000E+00  0.00000000000E+00  0.91415742207E+03  0.91415742207E+03  0.00000000000E+00 0.  1.
       21   -1    0    0  503  504  0.00000000000E+00  0.00000000000E+00 -0.12376344423E+03  0.12376344423E+03  0.00000000000E+00 0. -1.
        6    2    1    2  501    0 -0.17091314389E+03  0.10514914359E+03  0.71778961463E+03  0.76395069958E+03  0.16772327019E+03 0.  0.
       24    2    3    3    0    0 -0.14871835820E+03  0.22885073477E+02  0.54189542815E+03  0.56844918915E+03  0.82722118797E+02 0.  0.
       -6    2    1    2    0  504  0.17091314389E+03 -0.10514914359E+03  0.72604363217E+02  0.27397016672E+03  0.17181563825E+03 0.  0.
      -24    2    5    5    0    0  0.16368863850E+03 -0.19345120274E+02  0.72282415022E+02  0.18773376174E+03  0.53394884786E+02 0.  0.
        5    1    3    3  501    0 -0.22194785686E+02  0.82264070109E+02  0.17589418648E+03  0.19550151043E+03  0.47000000000E+01 0. -1.
        2    1    4    4  502    0 -0.82581276795E+02 -0.27561285521E+02  0.31410802615E+03  0.32594960320E+03  0.00000000000E+00 0. -1.
       -1    1    4    4    0  502 -0.66137081408E+02  0.50446358998E+02  0.22778740200E+03  0.24249958595E+03  0.00000000000E+00 0.  1.
       -5    1    5    5    0  504  0.72245053856E+01 -0.85804023312E+02  0.32194819513E+00  0.86236404988E+02  0.47000000000E+01 0.  1.
       11    1    6    6    0    0  0.38247692018E+02  0.51613332764E+01 -0.41409855691E+01  0.38815886791E+02  0.00000000000E+00 0. -1.
      -12    1    6    6    0    0  0.12544094649E+03 -0.24506453550E+02  0.76423400591E+02  0.14891787495E+03  0.00000000000E+00 0.  1.
</event>
<event>
12   0  0.1544783E-01  0.2164613E+03  0.7957747E-01  0.1143230E+00
        1   -1    0    0  502    0  0.00000000000E+00  0.00000000000E+00  0.65504755394E+03  0.65504755394E+03  0.00000000000E+00 0.  1.
       -1   -1    0    0    0  501  0.00000000000E+00  0.00000000000E+00 -0.82031303581E+02  0.82031303581E+02  0.00000000000E+00 0. -1.
        6    2    1    2  502    0  0.66560187753E+02 -0.10969233577E+03  0.41988662014E+03  0.47301180167E+03  0.17599069188E+03 0.  0.
       24    2    3    3    0    0  0.95433087403E+02 -0.31540946840E+02  0.22442225556E+03  0.26048017639E+03  0.85920125706E+02 0.  0.
       -6    2    1    2    0  501 -0.66560187753E+02  0.10969233577E+03  0.15312963022E+03  0.26406705585E+03  0.17268485519E+03 0.  0.
      -24    2    5    5    0    0 -0.82097758013E+02  0.44201067354E+02  0.57679397943E+02  0.14717668341E+03  0.98184963031E+02 0.  0.
        5    1    3    3  502    0 -0.28872899650E+02 -0.78151388930E+02  0.19546436458E+03  0.21253162529E+03  0.47000000000E+01 0. -1.
      -11    1    4    4    0    0  0.49178598517E+02  0.25798706917E+02  0.12460650381E+03  0.13642173076E+03  0.00000000000E+00 0.  1.
       12    1    4    4    0    0  0.46254488886E+02 -0.57339653757E+02  0.99815751746E+02  0.12405844563E+03  0.00000000000E+00 0. -1.
       -5    1    5    5    0  501  0.15537570260E+02  0.65491268415E+02  0.95450232276E+02  0.11689037244E+03  0.47000000000E+01 0.  1.
        1    1    6    6  503    0 -0.11352703735E+02 -0.27776913943E+02 -0.17436766047E+01  0.30057964641E+02  0.00000000000E+00 0. -1.
       -2    1    6    6    0  503 -0.70745054278E+02  0.71977981297E+02  0.59423074548E+02  0.11711871876E+03  0.00000000000E+00 0.  1.
</event>
<event>
12   0  0.1544783E-01  0.1766146E+03  0.7957747E-01  0.1176622E+00
        1   -1    0    0  502    0  0.00000000000E+00  0.00000000000E+00  0.20804822331E+04  0.20804822331E+04  0.00000000000E+00 0.  1.
       -1   -1    0    0    0  501  0.00000000000E+00  0.00000000000E+00 -0.15651900546E+02  0.15651900546E+02  0.00000000000E+00 0. -1.
        6    2    1    2  502    0 -0.25102101159E+01  0.24681608030E+02  0.79364840802E+03  0.81210097638E+03  0.17033706979E+03 0.  0.
       24    2    3    3    0    0 -0.22093240488E+02  0.52173578880E+02  0.27634256467E+03  0.29367380781E+03  0.81663325539E+02 0.  0.
       -6    2    1    2    0  501  0.25102101159E+01 -0.24681608030E+02  0.12711819246E+04  0.12840331573E+04  0.17950537814E+03 0.  0.
      -24    2    5    5    0    0  0.26887416215E+02 -0.67862088809E+02  0.11096317814E+04  0.11149789031E+04  0.81037447412E+02 0.  0.
        5    1    3    3  502    0  0.19583030372E+02 -0.27491970850E+02  0.51730584335E+03  0.51842716856E+03  0.47000000000E+01 0. -1.
        2    1    4    4  503    0 -0.35258755616E+02  0.21704497908E+02  0.50031372180E+02  0.64941537395E+02  0.00000000000E+00 0. -1.
       -1    1    4    4    0  503  0.13165515128E+02  0.30469080973E+02  0.22631119249E+03  0.22873227042E+03  0.00000000000E+00 0.  1.
       -5    1    5    5    0  501 -0.24377206099E+02  0.43180480779E+02  0.16155014319E+03  0.16905425420E+03  0.47000000000E+01 0.  1.
       11    1    6    6    0    0 -0.86557640051E+01  0.12019077759E+01  0.13393219625E+02  0.15992034415E+02  0.00000000000E+00 0. -1.
      -12    1    6    6    0    0  0.35543180220E+02 -0.69063996585E+02  0.10962385618E+04  0.10989868687E+04  0.00000000000E+00 0.  1.
</event>
<event>
12   0  0.1544783E-01  0.2034905E+03  0.7957747E-01  0.1153170E+00
       21   -1    0    0  504  503  0.00000000000E+00  0.00000000000E+00  0.35244152966E+03  0.35244152966E+03  0.00000000000E+00 0. -1.
       21   -1    0    0  501  504  0.00000000000E+00  0.00000000000E+00 -0.20224402715E+03  0.20224402715E+03  0.00000000000E+00 0. -1.
        6    2    1    2  501    0 -0.98844147517E+02  0.26489363152E+02 -0.10871740980E+03  0.23071159868E+03  0.17588779012E+03 0.  0.
       24    2    3    3    0    0 -0.13941099857E+03  0.19009616030E+02 -0.89471610345E+02  0.18495018679E+03  0.80028810523E+02 0.  0.
       -6    2    1    2    0  503  0.98844147517E+02 -0.26489363152E+02  0.25891491232E+03  0.32397395813E+03  0.16568144697E+03 0.  0.
      -24    2    5    5    0    0  0.88820132666E+02 -0.44941495029E+02  0.26862309008E+03  0.30036673974E+03  0.90294295936E+02 0.  0.
        5    1    3    3  501    0  0.40566851052E+02  0.74797471218E+01 -0.19245799455E+02  0.45761411887E+02  0.47000000000E+01 0. -1.
        2    1    4    4  502    0 -0.41229777044E+02  0.26395793140E+02 -0.68644055667E+02  0.84312743930E+02  0.00000000000E+00 0. -1.
       -1    1    4    4    0  502 -0.98181221524E+02 -0.73861771097E+01 -0.20827554678E+02  0.10063744286E+03  0.00000000000E+00 0.  1.
       -5    1    5    5    0  503  0.10024014850E+02  0.18452131877E+02 -0.97081777621E+01  0.23607218387E+02  0.47000000000E+01 0.  1.
       13    1    6    6    0    0  0.85513946865E+02 -0.33000680227E+00  0.20907964152E+03  0.22589165658E+03  0.00000000000E+00 0. -1.
      -14    1    6    6    0    0  0.33061858009E+01 -0.44611488227E+02  0.59543448554E+02  0.74475083162E+02  0.00000000000E+00 0.  1.
</event>
<event>
12   0  0.1544783E-01  0.2108074E+03  0.7957747E-01  0.1147466E+00
       21   -1    0    0  501  503  0.00000000000E+00  0.00000000000E+00  0.17836724353E+03  0.17836724353E+03  0.00000000000E+00 0. -1.
       21   -1    0    0  503  504  0.00000000000E+00  0.00000000000E+00 -0.29185740002E+03  0.29185740002E+03  0.00000000000E+00 0. -1.
        6    2    1    2  501    0 -0.18587108240E+02 -0.11765162040E+03  0.34373443291E+02  0.21273013160E+03  0.17287333777E+03 0.  0.
       24    2    3    3    0    0  0.29169687518E+02 -0.13047828245E+03  0.17648029086E+02  0.16031768765E+03  0.86688264391E+02 0.  0.
       -6    2    1    2    0  504  0.18587108240E+02  0.11765162040E+03 -0.14786359978E+03  0.25749451196E+03  0.17393215681E+03 0.  0.
      -24    2    5    5    0    0  0.85486890492E+01  0.38175948272E+02 -0.44781792640E+00  0.89653351748E+02  0.80666224827E+02 0.  0.
        5    1    3    3  501    0 -0.47756795758E+02  0.12826662043E+02  0.16725414205E+02  0.52412443948E+02  0.47000000000E+01 0. -1.
      -11    1    4    4    0    0  0.10873276885E+02 -0.55145492405E+02 -0.35360057074E+02  0.66404722115E+02  0.00000000000E+00 0.  1.
       12    1    4    4    0    0  0.18296410632E+02 -0.75332790043E+02  0.53008086160E+02  0.93912965538E+02  0.00000000000E+00 0. -1.
       -5    1    5    5    0  504  0.10038419191E+02  0.79475672133E+02 -0.14741578185E+03  0.16784116021E+03  0.47000000000E+01 0.  1.
        1    1    6    6  502    0  0.33958281278E+02 -0.15035659302E+01 -0.19085502893E+02  0.38983098883E+02  0.00000000000E+00 0. -1.
       -2    1    6    6    0  502 -0.25409592228E+02  0.39679514202E+02  0.18637684966E+02  0.50670252865E+02  0.00000000000E+00 0.  1.
</event>
<event>
12   0  0.1544783E-01  0.1808263E+03  0.7957747E-01  0.1172654E+00
       21   -1    0    0  504  503  0.00000000000E+00  0.00000000000E+00  0.57673782035E+03  0.57673782035E+03  0.00000000000E+00 0.  1.
       21   -1    0    0  501  504  0.00000000000E+00  0.00000000000E+00 -0.56889340505E+02  0.56889340505E+02  0.00000000000E+00 0. -1.
        6    2    1    2  501    0  0.42792717936E+02  0.30900952033E+02  0.23548412373E+03  0.29690223327E+03  0.17295108571E+03 0.  0.
       24    2    3    3    0    0  0.28393977862E+01  0.82517443613E+01  0.23734827133E+03  0.25069812690E+03  0.80244597724E+02 0.  0.
       -6    2    1    2    0  503 -0.42792717936E+02 -0.30900952033E+02  0.28436435612E+03  0.33672492759E+03  0.17243695741E+03 0.  0.
      -24    2    5    5    0    0 -0.43670606654E+02 -0.79419895909E+02  0.24632064494E+03  0.27488422446E+03  0.81687422402E+02 0.  0.
        5    1    3    3  501    0  0.39953320150E+02  0.22649207672E+02 -0.18641476024E+01  0.46204106370E+02  0.47000000000E+01 0. -1.
        2    1    4    4  502    0 -0.36916633293E+02  0.15957466071E+02  0.11703390177E+03  0.12375141495E+03  0.00000000000E+00 0. -1.
       -1    1    4    4    0  502  0.39756031079E+02 -0.77057217100E+01  0.12031436955E+03  0.12694671195E+03  0.00000000000E+00 0.  1.
       -5    1    5    5    0  503  0.87788871774E+00  0.48518943876E+02  0.38043711179E+02  0.61840703131E+02  0.47000000000E+01 0.  1.
       11    1    6    6    0    0 -0.19900367332E+02 -0.70307785554E+02  0.87324316161E+02  0.11386283644E+03  0.00000000000E+00 0. -1.
      -12    1    6    6    0    0 -0.23770239321E+02 -0.91121103550E+01  0.15899632878E+03  0.16102138801E+03  0.00000000000E+00 0.  1.
</event>
<event>
12   0  0.1544783E-01  0.2688268E+03  0.7957747E-01  0.1109692E+00
       21   -1    0    0  504  503  0.00000000000E+00  0.00000000000E+00  0.30366133407E+03  0.30366133407E+03  0.00000000000E+00 0.  1.
       21   -1    0    0  501  504  0.00000000000E+00  0.00000000000E+00 -0.33904841358E+03  0.33904841358E+03  0.00000000000E+00 0. -1.
        6    2    1    2  501    0 -0.16956527548E+03 -0.11479149641E+03 -0.19379191384E+03  0.33139579165E+03  0.17417920242E+03 0.  0.
       24    2    3    3    0    0 -0.67512088180E+01 -0.28392902202E+02 -0.41622416750E+02  0.92333491755E+02  0.77079909234E+02 0.  0.
       -6    2    1    2    0  503  0.16956527548E+03  0.11479149641E+03  0.15840483434E+03  0.31131395600E+03  0.17290117803E+03 0.  0.
      -24    2    5    5    0    0  0.30560569960E+02  0.42439687805E+02  0.10664639329E+03  0.14621362716E+03  0.85263685279E+02 0.  0.
        5    1    3    3  501    0 -0.16281406667E+03 -0.86398594207E+02 -0.15216949709E+03  0.23906229989E+03  0.47000000000E+01 0. -1.
      -11    1    4    4    0    0 -0.33292684868E+02 -0.14164158057E+02  0.53120492614E+01  0.36568348425E+02  0.00000000000E+00 0.  1.
       12    1    4    4    0    0  0.26541476050E+02 -0.14228744146E+02 -0.46934466011E+02  0.55765143330E+02  0.00000000000E+00 0. -1.
       -5    1    5    5    0  503  0.13900470552E+03  0.72351808605E+02  0.51758441043E+02  0.16510032885E+03  0.47000000000E+01 0.  1.
        3    1    6    6  502    0  0.25916000795E+02  0.17045059474E+02 -0.51778676675E+01  0.31448107467E+02  0.00000000000E+00 0. -1.
       -4    1    6    6    0  502  0.46445691649E+01  0.25394628331E+02  0.11182426096E+03  0.11476551969E+03  0.00000000000E+00 0.  1.
</event>
<event>
12   0  0.1544783E-01  0.2320323E+03  0.7957747E-01  0.1132258E+00
       21   -1    0    0  504  503  0.00000000000E+00  0.00000000000E+00  0.19789579824E+03  0.19789579824E+03  0.00000000000E+00 0.  1.
       21   -1    0    0  501  504  0.00000000000E+00  0.00000000000E+00 -0.27680673797E+03  0.27680673797E+03  0.00000000000E+00 0.  1.
        6    2    1    2  501    0  0.11667157437E+03  0.60544613714E+02  0.26587903000E+02  0.21981234152E+03  0.17416268941E+03 0.  0.
       24    2    3    3    0    0  0.56623971960E+02  0.36487353729E+01 -0.46683211848E+02  0.10920672775E+03  0.80791086430E+02 0.  0.
       -6    2    1    2    0  503 -0.11667157437E+03 -0.60544613714E+02 -0.10549884273E+03  0.25489019468E+03  0.19120956830E+03 0.  0.
      -24    2    5    5    0    0 -0.14139540916E+03 -0.59908597636E+01 -0.10743930660E+03  0.19478000023E+03  0.79796564805E+02 0.  0.
        5    1    3    3  501    0  0.60047602415E+02  0.56895878341E+02  0.73271114848E+02  0.11060561378E+03  0.47000000000E+01 0. -1.
        2    1    4    4  502    0 -0.36609227399E+01 -0.25569767211E+02 -0.31095763968E+02  0.40424768241E+02  0.00000000000E+00 0. -1.
       -1    1    4    4    0  502  0.60284894700E+02  0.29218502584E+02 -0.15587447880E+02  0.68781959507E+02  0.00000000000E+00 0.  1.
       -5    1    5    5    0  503  0.24723834786E+02 -0.54553753951E+02  0.19404638666E+01  0.60110194448E+02  0.47000000000E+01 0.  1.
       11    1    6    6    0    0 -0.23545679273E+02  0.27788768622E+02 -0.89068196577E+01  0.37495947919E+02  0.00000000000E+00 0. -1.
      -12    1    6    6    0    0 -0.11784972989E+03 -0.33779628385E+02 -0.98532486940E+02  0.15728405231E+03  0.00000000000E+00 0.  1.
</event>
<event>
12   0  0.1544783E-01  0.1918179E+03  0.7957747E-01  0.1162836E+00
        2   -1    0    0  502    0  0.00000000000E+00  0.00000000000E+00  0.44429835168E+03  0.44429835168E+03  0.00000000000E+00 0.  1.
       -2   -1    0    0    0  501  0.00000000000E+00  0.00000000000E+00 -0.83077047901E+02  0.83077047901E+02  0.00000000000E+00 0. -1.
        6    2    1    2  502    0  0.25430456250E+01 -0.83229737075E+02  0.16560123136E+03  0.25327390350E+03  0.17259851143E+03 0.  0.
       24    2    3    3    0    0 -0.18365846262E+02 -0.79822929954E+02  0.32526334820E+02  0.11844139189E+03  0.79128985851E+02 0.  0.
       -6    2    1    2    0  501 -0.25430456250E+01  0.83229737075E+02  0.19562007242E+03  0.27410149609E+03  0.17300509013E+03 0.  0.
      -24    2    5    5    0    0  0.44322189823E+02  0.59100521905E+02  0.52947295941E+02  0.12192994662E+03  0.81278333744E+02 0.  0.
        5    1    3    3  502    0  0.20908891887E+02 -0.34068071214E+01  0.13307489654E+03  0.13483251160E+03  0.47000000000E+01 0. -1.
        2    1    4    4  503    0 -0.35526295289E+02 -0.11398667882E+02 -0.64240840917E+01  0.37859161941E+02  0.00000000000E+00 0. -1.
       -1    1    4    4    0  503  0.17160449027E+02 -0.68424262072E+02  0.38950418912E+02  0.80582229954E+02  0.00000000000E+00 0.  1.
       -5    1    5    5    0  501 -0.46865235448E+02  0.24129215170E+02  0.14267277648E+03  0.15217154947E+03  0.47000000000E+01 0.  1.
       11    1    6    6    0    0 -0.85073505041E+01  0.64566290383E+01 -0.16740891527E+02  0.19857505388E+02  0.00000000000E+00 0. -1.
      -12    1    6    6    0    0  0.52829540327E+02  0.52643892867E+02  0.69688187468E+02  0.10207244124E+03  0.00000000000E+00 0.  1.
</event>
<event>
12   0  0.1544783E-01  0.1796038E+03  0.7957747E-01  0.1173793E+00
       -1   -1    0    0    0  501  0.00000000000E+00  0.00000000000E+00  0.10634453815E+03  0.10634453815E+03  0.00000000000E+00 0.  1.
        1   -1    0    0  502    0  0.00000000000E+00  0.00000000000E+00 -0.32205399637E+03  0.32205399637E+03  0.00000000000E+00 0. -1.
        6    2    1    2  502    0 -0.22096304141E+02  0.41856306722E+02 -0.56766779880E+02  0.18928538798E+03  0.17425927159E+03 0.  0.
       24    2    3    3    0    0 -0.82815064189E+01 -0.65334648947E+01  0.31654332934E+02  0.87438435032E+02  0.80822110930E+02 0.  0.
       -6    2    1    2    0  501  0.22096304141E+02 -0.41856306722E+02 -0.15894267834E+03  0.23911314654E+03  0.17225598619E+03 0.  0.
      -24    2    5    5    0    0 -0.33644396816E+02 -0.52756366361E+02 -0.15115871303E+03  0.18159343548E+03  0.78816493570E+02 0.  0.
        5    1    3    3  502    0 -0.13814797723E+02  0.48389771617E+02 -0.88421112813E+02  0.10184695295E+03  0.47000000000E+01 0. -1.
        4    1    4    4  503    0  0.13975510283E+02 -0.16337482743E+02  0.51654641905E+02  0.55950248082E+02  0.00000000000E+00 0. -1.
       -3    1    4    4    0  503 -0.22257016702E+02  0.98040178485E+01 -0.20000308971E+02  0.31488186950E+02  0.00000000000E+00 0.  1.
       -5    1    5    5    0  501  0.55740700958E+02  0.10900059638E+02 -0.77839653166E+01  0.57519711051E+02  0.47000000000E+01 0.  1.
       13    1    6    6    0    0 -0.17425368378E+01 -0.60682339011E+02 -0.62924767986E+02  0.87435171004E+02  0.00000000000E+00 0. -1.
      -14    1    6    6    0    0 -0.31901859979E+02  0.79259726505E+01 -0.88233945040E+02  0.94158264480E+02  0.00000000000E+00 0.  1.
</event>
<event>
12   0  0.1544783E-01  0.2585117E+03  0.7957747E-01  0.1115603E+00
       21   -1    0    0  504  503  0.00000000000E+00  0.00000000000E+00  0.13761957159E+03  0.13761957159E+03  0.00000000000E+00 0. -1.
       21   -1    0    0  501  504  0.00000000000E+00  0.00000000000E+00 -0.10082593329E+04  0.10082593329E+04  0.00000000000E+00 0. -1.
        6    2    1    2  501    0  0.47969741491E+02  0.18599877430E+03 -0.84809904260E+03  0.88662297034E+03  0.17300770311E+03 0.  0.
       24    2    3    3    0    0 -0.47400591533E+01  0.14699948195E+03 -0.40026149052E+03  0.43398643741E+03  0.80645218141E+02 0.  0.
       -6    2    1    2    0  503 -0.47969741491E+02 -0.18599877430E+03 -0.22540718669E+02  0.25925593410E+03  0.17265258535E+03 0.  0.
      -24    2    5    5    0    0  0.35578910760E+02 -0.76003106100E+02  0.10493031292E+02  0.11715476256E+03  0.81072829346E+02 0.  0.
        5    1    3    3  501    0  0.52709800645E+02  0.38999292348E+02 -0.44783755208E+03  0.45263653293E+03  0.47000000000E+01 0. -1.
        4    1    4    4  502    0 -0.19706843642E+01  0.11682538042E+03 -0.37994454628E+03  0.39750460546E+03  0.00000000000E+00 0. -1.
       -3    1    4    4    0  502 -0.27693747892E+01  0.30174101529E+02 -0.20316944239E+02  0.36481831958E+02  0.00000000000E+00 0.  1.
       -5    1    5    5    0  503 -0.83548652252E+02 -0.10999566820E+03 -0.33033749960E+02  0.14210117154E+03  0.47000000000E+01 0.  1.
       13    1    6    6    0    0 -0.12602482050E+02  0.29175248099E+00  0.22831268241E+02  0.26080154962E+02  0.00000000000E+00 0. -1.
      -14    1    6    6    0    0  0.48181392810E+02 -0.76294858581E+02 -0.12338236949E+02  0.91074607603E+02  0.00000000000E+00 0.  1.
</event>
<event>
12   0  0.1544783E-01  0.2036406E+03  0.7957747E-01  0.1153051E+00
       21   -1    0    0  501  503  0.00000000000E+00  0.00000000000E+00  0.74153790275E+02  0.74153790275E+02  0.00000000000E+00 0.  1.
       21   -1    0    0  503  504  0.00000000000E+00  0.00000000000E+00 -0.58256309860E+03  0.58256309860E+03  0.00000000000E+00 0.  1.
        6    2    1    2  501    0 -0.79173987397E+02  0.65692509588E+02 -0.17660165577E+03  0.26740236478E+03  0.17242927180E+03 0.  0.
       24    2    3    3    0    0 -0.21662288660E+02 -0.24365414497E+02 -0.48612405693E+02  0.10060499275E+03  0.81824632018E+02 0.  0.
       -6    2    1    2    0  504  0.79173987397E+02 -0.65692509588E+02 -0.33180765256E+03  0.38931452410E+03  0.17574257959E+03 0.  0.
      -24    2    5    5    0    0  0.11152371420E+02  0.90617506553E+01 -0.23556286288E+03  0.24967108814E+03  0.81481894761E+02 0.  0.
        5    1    3    3  501    0 -0.57511698737E+02  0.90057924085E+02 -0.12798925007E+03  0.16679737203E+03  0.47000000000E+01 0. -1.
        4    1    4    4  502    0 -0.33197583524E+01  0.24586737015E+02  0.54505388821E+01  0.25401511898E+02  0.00000000000E+00 0. -1.
       -3    1    4    4    0  502 -0.18342530308E+02 -0.48952151513E+02 -0.54062944575E+02  0.75203480850E+02  0.00000000000E+00 0.  1.
       -5    1    5    5    0  504  0.68021615977E+02 -0.74754260243E+02 -0.96244789682E+02  0.13964343596E+03  0.47000000000E+01 0.  1.
       11    1    6    6    0    0  0.44785606943E+01 -0.12446735769E+02 -0.19609766478E+00  0.13229406317E+02  0.00000000000E+00 0. -1.
      -12    1    6    6    0    0  0.66738107258E+01  0.21508486424E+02 -0.23536676521E+03  0.23644168182E+03  0.00000000000E+00 0.  1.
</event>
<event>
12   0  0.1544783E-01  0.1867426E+03  0.7957747E-01  0.1167277E+00
       -1   -1    0    0    0  501  0.00000000000E+00  0.00000000000E+00  0.49172905166E+03  0.49172905166E+03  0.00000000000E+00 0.  1.
        1   -1    0    0  502    0  0.00000000000E+00  0.00000000000E+00 -0.12319603915E+03  0.12319603915E+03  0.00000000000E+00 0. -1.
        6    2    1    2  502    0 -0.47531596622E+02  0.41676819926E+02  0.38471891415E+03  0.42777492456E+03  0.17602992125E+03 0.  0.
       24    2    3    3    0    0 -0.77801502079E+02  0.39464246026E+02  0.37823156669E+03  0.39638482521E+03  0.80320054653E+02 0.  0.
       -6    2    1    2    0  501  0.47531596622E+02 -0.41676819926E+02 -0.16185901644E+02  0.18715016626E+03  0.17540522034E+03 0.  0.
      -24    2    5    5    0    0  0.78646113526E+02  0.20139604898E+02  0.11800719319E+01  0.11564456802E+03  0.82349612541E+02 0.  0.
        5    1    3    3  502    0  0.30269905456E+02  0.22125738994E+01  0.64873474656E+01  0.31390099342E+02  0.47000000000E+01 0. -1.
        4    1    4    4  503    0 -0.45697849642E+02  0.18733343114E+02  0.69298470333E+02  0.85097059859E+02  0.00000000000E+00 0. -1.
       -3    1    4    4    0  503 -0.32103652436E+02  0.20730902912E+02  0.30893309636E+03  0.31128776535E+03  0.00000000000E+00 0.  1.
       -5    1    5    5    0  501 -0.31114516904E+02 -0.61816424824E+02 -0.17365973576E+02  0.71505598231E+02  0.47000000000E+01 0.  1.
       13    1    6    6    0    0  0.35611018334E+02  0.40815844302E+02 -0.26663928484E+02  0.60374190306E+02  0.00000000000E+00 0. -1.
      -14    1    6    6    0    0  0.43035095192E+02 -0.20676239404E+02  0.27844000416E+02  0.55270377719E+02  0.00000000000E+00 0.  1.
</event>
<event>
12   0  0.1544783E-01  0.2122051E+03  0.7957747E-01  0.1146406E+00
       21   -1    0    0  504  503  0.00000000000E+00  0.00000000000E+00  0.25799251644E+03  0.25799251644E+03  0.00000000000E+00 0. -1.
       21   -1    0    0  501  504  0.00000000000E+00  0.00000000000E+00 -0.17088096004E+03  0.17088096004E+03  0.00000000000E+00 0. -1.
        6    2    1    2  501    0 -0.54843253995E+02  0.11014330735E+03  0.21722127465E+02  0.21331400426E+03  0.17289211356E+03 0.  0.
       24    2    3    3    0    0 -0.34811125674E+02 -0.41103095118E+01  0.38040231457E+02  0.96081134944E+02  0.80967994713E+02 0.  0.
       -6    2    1    2    0  503  0.54843253995E+02 -0.11014330735E+03  0.65389428937E+02  0.21555947221E+03  0.16447120715E+03 0.  0.
      -24    2    5    5    0    0 -0.17895346414E+02 -0.54591723965E+02  0.73372907135E+02  0.12356649242E+03  0.81145516202E+02 0.  0.
        5    1    3    3  501    0 -0.20032128321E+02  0.11425361686E+03 -0.16318103993E+02  0.11723286932E+03  0.47000000000E+01 0. -1.
      -11    1    4    4    0    0 -0.43329920674E+02 -0.29218593453E+02  0.44670401808E+02  0.68750658373E+02  0.00000000000E+00 0.  1.
       12    1    4    4    0    0  0.85187949997E+01  0.25108283942E+02 -0.66301703507E+01  0.27330476571E+02  0.00000000000E+00 0. -1.
       -5    1    5    5    0  503  0.72738600408E+02 -0.55551583384E+02 -0.79834781973E+01  0.91992979786E+02  0.47000000000E+01 0.  1.
        3    1    6    6  502    0 -0.14990777152E+02  0.13508321707E+02  0.45782344488E+02  0.50032201848E+02  0.00000000000E+00 0. -1.
       -4    1    6    6    0  502 -0.29045692620E+01 -0.68100045673E+02  0.27590562646E+02  0.73534290575E+02  0.00000000000E+00 0.  1.
</event>
<event>
12   0  0.1544783E-01  0.2114134E+03  0.7957747E-01  0.1147006E+00
       21   -1    0    0  501  503  0.00000000000E+00  0.00000000000E+00  0.96628102257E+02  0.96628102257E+02  0.00000000000E+00 0.  1.
       21   -1    0    0  503  504  0.00000000000E+00  0.00000000000E+00 -0.46811752239E+03  0.46811752239E+03  0.00000000000E+00 0. -1.
        6    2    1    2  501    0 -0.11816042299E+03 -0.29229376895E+02 -0.14902365103E+03  0.25784722780E+03  0.17164178479E+03 0.  0.
       24    2    3    3    0    0 -0.14794552041E+03 -0.78593050546E+01 -0.96824304155E+02  0.19388869583E+03  0.79172184568E+02 0.  0.
       -6    2    1    2    0  504  0.11816042299E+03  0.29229376895E+02 -0.22246576910E+03  0.30689839684E+03  0.17285648824E+03 0.  0.
      -24    2    5    5    0    0  0.15031612493E+03  0.41153287821E+02 -0.19931331228E+03  0.26525352830E+03  0.79656181884E+02 0.  0.
        5    1    3    3  501    0  0.29785097416E+02 -0.21370071841E+02 -0.52199346875E+02  0.63958531978E+02  0.47000000000E+01 0. -1.
      -13    1    4    4    0    0  0.27055909611E+01  0.11799591020E+02 -0.20642004598E+02  0.23929958724E+02  0.00000000000E+00 0.  1.
       14    1    4    4    0    0 -0.15065111137E+03 -0.19658896075E+02 -0.76182299556E+02  0.16995873710E+03  0.00000000000E+00 0. -1.
       -5    1    5    5    0  504 -0.32155701936E+02 -0.11923910925E+02 -0.23152456817E+02  0.41644868536E+02  0.47000000000E+01 0.  1.
        1    1    6    6  502    0  0.84427097087E+01  0.30175766661E+02 -0.49891411265E+02  0.58915271015E+02  0.00000000000E+00 0. -1.
       -2    1    6    6    0  502  0.14187341522E+03  0.10977521160E+02 -0.14942190102E+03  0.20633825729E+03  0.00000000000E+00 0.  1.
</event>
<event>
12   0  0.1544783E-01  0.1782499E+03  0.7957747E-01  0.1175067E+00
        1   -1    0    0  502    0  0.00000000000E+00  0.00000000000E+00  0.77193232792E+03  0.77193232792E+03  0.00000000000E+00 0. -1.
       -1   -1    0    0    0  501  0.00000000000E+00  0.00000000000E+00 -0.43767375166E+02  0.43767375166E+02  0.00000000000E+00 0.  1.
        6    2    1    2  502    0 -0.27628362166E+01  0.43546064922E+02  0.46339493622E+03  0.49645322525E+03  0.17270508074E+03 0.  0.
       24    2    3    3    0    0  0.40117311028E+02  0.73344325762E+02  0.21493794596E+03  0.24252487042E+03  0.75041344568E+02 0.  0.
       -6    2    1    2    0  501  0.27628362166E+01 -0.43546064922E+02  0.26477001654E+03  0.31924647784E+03  0.17294871760E+03 0.  0.
      -24    2    5    5    0    0  0.20210468730E+02 -0.76730223768E+02  0.10517179053E+03  0.15523644149E+03  0.82105157922E+02 0.  0.
        5    1    3    3  502    0 -0.42880147245E+02 -0.29798260839E+02  0.24845699026E+03  0.25392835483E+03  0.47000000000E+01 0. -1.
      -13    1    4    4    0    0  0.47880607698E+02  0.12353426623E+02  0.11512355261E+03  0.12529402264E+03  0.00000000000E+00 0.  1.
       14    1    4    4    0    0 -0.77632966696E+01  0.60990899138E+02  0.99814393347E+02  0.11723084778E+03  0.00000000000E+00 0. -1.
       -5    1    5    5    0  501 -0.17447632513E+02  0.33184158846E+02  0.15959822600E+03  0.16401003635E+03  0.47000000000E+01 0.  1.
        1    1    6    6  503    0  0.50026724876E+02 -0.29370197829E+02  0.58182134718E+02  0.82161076689E+02  0.00000000000E+00 0. -1.
       -2    1    6    6    0  503 -0.29816256146E+02 -0.47360025939E+02  0.46989655816E+02  0.73075364804E+02  0.00000000000E+00 0.  1.
</event>
<event>
12   0  0.1544783E-01  0.1826246E+03  0.7957747E-01  0.1170996E+00
       21   -1    0    0  504  503  0.00000000000E+00  0.00000000000E+00  0.27979502575E+03  0.27979502575E+03  0.00000000000E+00 0.  1.
       21   -1    0    0  501  504  0.00000000000E+00  0.00000000000E+00 -0.21633482759E+03  0.21633482759E+03  0.00000000000E+00 0.  1.
        6    2    1    2  501    0  0.57622779949E+02 -0.46464402120E+01 -0.13455250902E+03  0.22675874477E+03  0.17312763058E+03 0.  0.
       24    2    3    3    0    0  0.31478149588E+02 -0.22239790876E+02 -0.33083177743E+01  0.91702477163E+02  0.83143954390E+02 0.  0.
       -6    2    1    2    0  503 -0.57622779949E+02  0.46464402120E+01  0.19801270719E+03  0.26937110856E+03  0.17323333323E+03 0.  0.
      -24    2    5    5    0    0  0.24388887258E+02  0.37083132777E+02  0.12232050025E+03  0.15305493267E+03  0.80582448926E+02 0.  0.
        5    1    3    3  501    0  0.26144630361E+02  0.17593350664E+02 -0.13124419125E+03  0.13505626761E+03  0.47000000000E+01 0. -1.
        4    1    4    4  502    0 -0.73575260696E+01 -0.39056361294E+02  0.18788550561E+02  0.43960689025E+02  0.00000000000E+00 0. -1.
       -3    1    4    4    0  502  0.38835675657E+02  0.16816570418E+02 -0.22096868335E+02  0.47741788138E+02  0.00000000000E+00 0.  1.
       -5    1    5    5    0  503 -0.82011667206E+02 -0.32436692565E+02  0.75692206938E+02  0.11631617589E+03  0.47000000000E+01 0.  1.
       13    1    6    6    0    0  0.44867227951E+02  0.22672526213E+02  0.32623694014E+02  0.59928432317E+02  0.00000000000E+00 0. -1.
      -14    1    6    6    0    0 -0.20478340693E+02  0.14410606564E+02  0.89696806234E+02  0.93126500352E+02  0.00000000000E+00 0.  1.
</event>
<event>
12   0  0.1544783E-01  0.2129457E+03  0.7957747E-01  0.1145847E+00
       21   -1    0    0  504  503  0.00000000000E+00  0.00000000000E+00  0.52967163042E+03  0.52967163042E+03  0.00000000000E+00 0. -1.
       21   -1    0    0  501  504  0.00000000000E+00  0.00000000000E+00 -0.11560332840E+03  0.11560332840E+03  0.00000000000E+00 0. -1.
        6    2    1    2  501    0 -0.10734977113E+03  0.60011925917E+02  0.39417297015E+02  0.21433500493E+03  0.17105661758E+03 0.  0.
       24    2    3    3    0    0 -0.13252488043E+03  0.18485781894E+02  0.50958000161E+02  0.16420034033E+03  0.80377023563E+02 0.  0.
       -6    2    1    2    0  503  0.10734977113E+03 -0.60011925917E+02  0.37465100501E+03  0.43093995389E+03  0.17384033965E+03 0.  0.
      -24    2    5    5    0    0  0.70028615336E+02 -0.78622017707E+02  0.36432886864E+03  0.38772143141E+03  0.80665700367E+02 0.  0.
        5    1    3    3  501    0  0.25175109300E+02  0.41526144022E+02 -0.11540703146E+02  0.50134664601E+02  0.47000000000E+01 0. -1.
        2    1    4    4  502    0 -0.82862993406E+02  0.45890891797E+02  0.12206552687E+02  0.95505233127E+02  0.00000000000E+00 0. -1.
       -1    1    4    4    0  502 -0.49661887027E+02 -0.27405109903E+02  0.38751447474E+02  0.68695107199E+02  0.00000000000E+00 0.  1.
       -5    1    5    5    0  503  0.37321155796E+02  0.18610091790E+02  0.10322136373E+02  0.43218522484E+02  0.47000000000E+01 0.  1.
       11    1    6    6    0    0  0.46709538218E+02 -0.29717391482E+01  0.81090836887E+02  0.93628713657E+02  0.00000000000E+00 0. -1.
      -12    1    6    6    0    0  0.23319077119E+02 -0.75650278558E+02  0.28323803175E+03  0.29409271775E+03  0.00000000000E+00 0.  1.
</event>
<event>
12   0  0.1544783E-01  0.2022249E+03  0.7957747E-01  0.1154183E+00
       21   -1    0    0  504  503  0.00000000000E+00  0.00000000000E+00  0.81777433331E+02  0.81777433331E+02  0.00000000000E+00 0. -1.
       21   -1    0    0  501  504  0.00000000000E+00  0.00000000000E+00 -0.59235848484E+03  0.59235848484E+03  0.00000000000E+00 0. -1.
        6    2    1    2  501    0  0.98950268579E+02 -0.37042977828E+02 -0.38855207874E+03  0.43802695965E+03  0.17242842464E+03 0.  0.
       24    2    3    3    0    0  0.13478581843E+03 -0.44938208212E+02 -0.34310137253E+03  0.37942339328E+03  0.77826089001E+02 0.  0.
       -6    2    1    2    0  503 -0.98950268579E+02  0.37042977828E+02 -0.12202897276E+03  0.23610895852E+03  0.17231666269E+03 0.  0.
      -24    2    5    5    0    0 -0.48155717105E+02  0.87781626412E+02 -0.92398490706E+02  0.15829795424E+03  0.80598847432E+02 0.  0.
        5    1    3    3  501    0 -0.35835549850E+02  0.78952303833E+01 -0.45450706214E+02  0.58603566369E+02  0.47000000000E+01 0. -1.
      -11    1    4    4    0    0 -0.16759774654E+01 -0.12684692141E+02 -0.56281533122E+01  0.13978069426E+02  0.00000000000E+00 0.  1.
       12    1    4    4    0    0  0.13646179590E+03 -0.32253516071E+02 -0.33747321922E+03  0.36544532385E+03  0.00000000000E+00 0. -1.
       -5    1    5    5    0  503 -0.50794551474E+02 -0.50738648583E+02 -0.29630482056E+02  0.77811004276E+02  0.47000000000E+01 0.  1.
        3    1    6    6  502    0 -0.66936289306E+02  0.66751204755E+02 -0.89111087219E+02  0.12991141608E+03  0.00000000000E+00 0. -1.
       -4    1    6    6    0  502  0.18780572201E+02  0.21030421657E+02 -0.32874034870E+01  0.28386538164E+02  0.00000000000E+00 0.  1.
</event>
<event>
12   0  0.1544783E-01  0.1836121E+03  0.7957747E-01  0.1170094E+00
       21   -1    0    0  504  503  0.00000000000E+00  0.00000000000E+00  0.14634531857E+03  0.14634531857E+03  0.00000000000E+00 0. -1.
       21   -1    0    0  501  504  0.00000000000E+00  0.00000000000E+00 -0.28164626600E+03  0.28164626600E+03  0.00000000000E+00 0. -1.
        6    2    1    2  501    0 -0.45718365836E+02  0.42117003924E+02 -0.15976622223E+03  0.24338988124E+03  0.17276972399E+03 0.  0.
       24    2    3    3    0    0 -0.81987552822E+02  0.43694993005E+02 -0.56302125329E+02  0.13364083422E+03  0.77837857254E+02 0.  0.
       -6    2    1    2    0  503  0.45718365836E+02 -0.42117003924E+02  0.24465274800E+02  0.18460170333E+03  0.17209075573E+03 0.  0.
      -24    2    5    5    0    0  0.51922316517E+02  0.37194037513E+02  0.16963575164E+02  0.10455736690E+03  0.81025654646E+02 0.  0.
        5    1    3    3  501    0  0.36269186986E+02 -0.15779890812E+01 -0.10346409690E+03  0.10974904702E+03  0.47000000000E+01 0. -1.
      -11    1    4    4    0    0 -0.25692347918E+02  0.53187267764E+02 -0.95165934561E+01  0.59829321781E+02  0.00000000000E+00 0.  1.
       12    1    4    4    0    0 -0.56295204904E+02 -0.94922747589E+01 -0.46785531873E+02  0.73811512435E+02  0.00000000000E+00 0. -1.
       -5    1    5    5    0  503 -0.62039506806E+01 -0.79311041437E+02  0.75016996366E+01  0.80044336435E+02  0.47000000000E+01 0.  1.
        3    1    6    6  502    0  0.67676552382E+02  0.17344313833E+02  0.30031103406E+02  0.76044777180E+02  0.00000000000E+00 0. -1.
       -4    1    6    6    0  502 -0.15754235866E+02  0.19849723680E+02 -0.13067528242E+02  0.28512589715E+02  0.00000000000E+00 0.  1.
</event>
<event>
12   0  0.1544783E-01  0.1864598E+03  0.7957747E-01  0.1167529E+00
       21   -1    0    0  501  503  0.00000000000E+00  0.00000000000E+00  0.10492070373E+03  0.10492070373E+03  0.00000000000E+00 0. -1.
       21   -1    0    0  503  504  0.00000000000E+00  0.00000000000E+00 -0.33528101013E+03  0.33528101013E+03  0.00000000000E+00 0. -1.
        6    2    1    2  501    0 -0.47825869829E+02 -0.41827572606E+02 -0.80147074448E+02  0.20295522185E+03  0.17530090953E+03 0.  0.
       24    2    3    3    0    0 -0.37974529863E+02  0.36128746940E+02 -0.73320571093E+02  0.12394302150E+03  0.85080051481E+02 0.  0.
       -6    2    1    2    0  504  0.47825869829E+02  0.41827572606E+02 -0.15021323195E+03  0.23724649201E+03  0.17229342200E+03 0.  0.
      -24    2    5    5    0    0  0.49235137740E+02  0.81082127338E+02 -0.59328495733E+02  0.13812519571E+03  0.80995611746E+02 0.  0.
        5    1    3    3  501    0 -0.98513399663E+01 -0.77956319546E+02 -0.68265033548E+01  0.79012200351E+02  0.47000000000E+01 0. -1.
        4    1    4    4  502    0 -0.62177453934E+02  0.41742397938E+02 -0.51636807502E+02  0.90966056594E+02  0.00000000000E+00 0. -1.
       -3    1    4    4    0  502  0.24202924071E+02 -0.56136509975E+01 -0.21683763591E+02  0.32976964909E+02  0.00000000000E+00 0.  1.
       -5    1    5    5    0  504 -0.14092679107E+01 -0.39254554732E+02 -0.90884736216E+02  0.99121296300E+02  0.47000000000E+01 0.  1.
       11    1    6    6    0    0  0.48440872586E+02  0.57768233033E+02 -0.77826029387E+02  0.10835394656E+03  0.00000000000E+00 0. -1.
      -12    1    6    6    0    0  0.79426515376E+00  0.23313894306E+02  0.18497533654E+02  0.29771249152E+02  0.00000000000E+00 0.  1.
</event>
<event>
12   0  0.1544783E-01  0.2508931E+03  0.7957747E-01  0.1120164E+00
       -1   -1    0    0    0  501  0.00000000000E+00  0.00000000000E+00  0.84510432844E+02  0.84510432844E+02  0.00000000000E+00 0.  1.
        1   -1    0    0  502    0  0.00000000000E+00  0.00000000000E+00 -0.74661208115E+03  0.74661208115E+03  0.00000000000E+00 0. -1.
        6    2    1    2  502    0 -0.16144554250E+03  0.85461846872E+02 -0.35169360310E+03  0.43220956990E+03  0.17247704597E+03 0.  0.
       24    2    3    3    0    0 -0.13295737856E+03  0.75459403174E+02 -0.15175601861E+03  0.22995044883E+03  0.80470700830E+02 0.  0.
       -6    2    1    2    0  501  0.16144554250E+03 -0.85461846872E+02 -0.31040804521E+03  0.39891294410E+03  0.17149341671E+03 0.  0.
      -24    2    5    5    0    0  0.97899604820E+02 -0.10928665661E+03 -0.14893830576E+03  0.22369800606E+03  0.79563013107E+02 0.  0.
        5    1    3    3  502    0 -0.28488163945E+02  0.10002443698E+02 -0.19993758449E+03  0.20225912107E+03  0.47000000000E+01 0. -1.
      -11    1    4    4    0    0 -0.30075867405E+02  0.49092159564E+02 -0.20513612825E+02  0.61117969878E+02  0.00000000000E+00 0.  1.
       12    1    4    4    0    0 -0.10288151115E+03  0.26367243610E+02 -0.13124240579E+03  0.16883247895E+03  0.00000000000E+00 0. -1.
       -5    1    5    5    0  501  0.63545937681E+02  0.23824809740E+02 -0.16146973945E+03  0.17521493804E+03  0.47000000000E+01 0.  1.
        3    1    6    6  503    0  0.83784659682E+02 -0.48587447407E+02 -0.12209088133E+03  0.15584220400E+03  0.00000000000E+00 0. -1.
       -4    1    6    6    0  503  0.14114945137E+02 -0.60699209206E+02 -0.26847424429E+02  0.67855802058E+02  0.00000000000E+00 0.  1.
</event>
<event>
12   0  0.1544783E-01  0.1927528E+03  0.7957747E-01  0.1162034E+00
       21   -1    0    0  504  503  0.00000000000E+00  0.00000000000E+00  0.40467769143E+03  0.40467769143E+03  0.00000000000E+00 0.  1.
       21   -1    0    0  501  504  0.00000000000E+00  0.00000000000E+00 -0.16398701427E+03  0.16398701427E+03  0.00000000000E+00 0. -1.
        6    2    1    2  501    0  0.22746400678E+01 -0.43198452691E+02 -0.73523481952E+02  0.20629919223E+03  0.18783602959E+03 0.  0.
       24    2    3    3    0    0 -0.69073748355E+02 -0.11333447817E+02 -0.56355083800E+02  0.12615672557E+03  0.88543741653E+02 0.  0.
       -6    2    1    2    0  503 -0.22746400678E+01  0.43198452691E+02  0.31421415911E+03  0.36236551347E+03  0.17523397863E+03 0.  0.
      -24    2    5    5    0    0 -0.45387345326E+02  0.22341085902E+02  0.78030100118E+02  0.12132872204E+03  0.77928345494E+02 0.  0.
        5    1    3    3  501    0  0.71348388423E+02 -0.31865004874E+02 -0.17168398153E+02  0.80142466654E+02  0.47000000000E+01 0. -1.
        4    1    4    4  502    0 -0.55951886379E+02 -0.35596314798E+02 -0.69097849215E+02  0.95771728514E+02  0.00000000000E+00 0. -1.
       -3    1    4    4    0  502 -0.13121861976E+02  0.24262866980E+02  0.12742765415E+02  0.30384997059E+02  0.00000000000E+00 0.  1.
       -5    1    5    5    0  503  0.43112705258E+02  0.20857366790E+02  0.23618405899E+03  0.24103679144E+03  0.47000000000E+01 0.  1.
       11    1    6    6    0    0 -0.44113905872E+01  0.41179204784E+02  0.15474844805E+02  0.44211515415E+02  0.00000000000E+00 0. -1.
      -12    1    6    6    0    0 -0.40975954739E+02 -0.18838118882E+02  0.62555255313E+02  0.77117206621E+02  0.00000000000E+00 0.  1.
</event>
<event>
12   0  0.1544783E-01  0.2548346E+03  0.7957747E-01  0.1117783E+00
       21   -1    0    0  501  503  0.00000000000E+00  0.00000000000E+00  0.22330588298E+03  0.22330588298E+03  0.00000000000E+00 0. -1.
       21   -1    0    0  503  504  0.00000000000E+00  0.00000000000E+00 -0.28837954046E+03  0.28837954046E+03  0.00000000000E+00 0. -1.
        6    2    1    2  501    0 -0.75780011622E+02  0.16842177980E+03 -0.17499369887E+02  0.25543473994E+03  0.17559092331E+03 0.  0.
       24    2    3    3    0    0 -0.57457739048E+02  0.18070989215E+03  0.23990572886E+02  0.20820965414E+03  0.82572729119E+02 0.  0.
       -6    2    1    2    0  504  0.75780011622E+02 -0.16842177980E+03 -0.47574287594E+02  0.25625068351E+03  0.17115079283E+03 0.  0.
      -24    2    5    5    0    0  0.92883661468E+02 -0.18858717955E+03 -0.40689516765E+02  0.22852581643E+03  0.79849315216E+02 0.  0.
        5    1    3    3  501    0 -0.18322272574E+02 -0.12288112346E+02 -0.41489942774E+02  0.47225085798E+02  0.47000000000E+01 0. -1.
      -13    1    4    4    0    0  0.68020669879E+01  0.66089792022E+01  0.20508899632E+02  0.22595612085E+02  0.00000000000E+00 0.  1.
       14    1    4    4    0    0 -0.64259806036E+02  0.17410091294E+03  0.34816732544E+01  0.18561404206E+03  0.00000000000E+00 0. -1.
       -5    1    5    5    0  504 -0.17103649846E+02  0.20165399751E+02 -0.68847708292E+01  0.27724867079E+02  0.47000000000E+01 0.  1.
        3    1    6    6  502    0  0.70292079548E+02 -0.10373981115E+03  0.12394604008E+02  0.12592279807E+03  0.00000000000E+00 0. -1.
       -4    1    6    6    0  502  0.22591581919E+02 -0.84847368404E+02 -0.53084120774E+02  0.10260301836E+03  0.00000000000E+00 0.  1.
</event>
<event>
12   0  0.1544783E-01  0.2151393E+03  0.7957747E-01  0.1144208E+00
       -2   -1    0    0    0  501  0.00000000000E+00  0.00000000000E+00  0.20295057646E+03  0.20295057646E+03  0.00000000000E+00 0.  1.
        2   -1    0    0  502    0  0.00000000000E+00  0.00000000000E+00 -0.32235647450E+03  0.32235647450E+03  0.00000000000E+00 0. -1.
        6    2    1    2  502    0  0.41259550352E+02 -0.12130290401E+03 -0.20185464234E+03  0.29536519682E+03  0.17343170945E+03 0.  0.
       24    2    3    3    0    0  0.84211313793E+02 -0.36990891838E+02 -0.12811027572E+03  0.17530816460E+03  0.76556112610E+02 0.  0.
       -6    2    1    2    0  501 -0.41259550352E+02  0.12130290401E+03  0.82448744301E+02  0.22994185414E+03  0.17221706022E+03 0.  0.
      -24    2    5    5    0    0  0.70975943275E+01  0.10293993495E+03  0.11021191359E+03  0.17104791860E+03  0.80397254354E+02 0.  0.
        5    1    3    3  502    0 -0.42951763442E+02 -0.84312012168E+02 -0.73744366620E+02  0.12005703223E+03  0.47000000000E+01 0. -1.
        4    1    4    4  503    0  0.79589046182E+02 -0.86048737980E+01 -0.12197927344E+03  0.14590203314E+03  0.00000000000E+00 0. -1.
       -3    1    4    4    0  503  0.46222676112E+01 -0.28386018040E+02 -0.61310022789E+01  0.29406131452E+02  0.00000000000E+00 0.  1.
       -5    1    5    5    0  501 -0.48357144679E+02  0.18362969056E+02 -0.27763169290E+02  0.58893935538E+02  0.47000000000E+01 0.  1.
       11    1    6    6    0    0  0.35063259777E+02  0.94463381315E+02  0.93082018835E+02  0.13717516111E+03  0.00000000000E+00 0. -1.
      -12    1    6    6    0    0 -0.27965665450E+02  0.84765536353E+01  0.17129894755E+02  0.33872757489E+02  0.00000000000E+00 0.  1.
</event>
<event>
12   0  0.1544783E-01  0.1804946E+03  0.7957747E-01  0.1172962E+00
       21   -1    0    0  501  503  0.00000000000E+00  0.00000000000E+00  0.24589404218E+03  0.24589404218E+03  0.00000000000E+00 0.  1.
       21   -1    0    0  503  504  0.00000000000E+00  0.00000000000E+00 -0.15732518920E+03  0.15732518920E+03  0.00000000000E+00 0.  1.
        6    2    1    2  501    0 -0.20136575051E+02 -0.45533706969E+02  0.12651362579E+03  0.22041774612E+03  0.17349203201E+03 0.  0.
       24    2    3    3    0    0 -0.47957462323E+02 -0.85183504050E+02  0.11445973865E+03  0.17028298401E+03  0.79618561376E+02 0.  0.
       -6    2    1    2    0  504  0.20136575051E+02  0.45533706969E+02 -0.37944772811E+02  0.18280148525E+03  0.17174916915E+03 0.  0.
      -24    2    5    5    0    0  0.61844597057E+02  0.61163215544E+02 -0.59881980076E+02  0.13292993324E+03  0.80739225239E+02 0.  0.
        5    1    3    3  501    0  0.27820887272E+02  0.39649797081E+02  0.12053887136E+02  0.50134762114E+02  0.47000000000E+01 0. -1.
        2    1    4    4  502    0 -0.59400368988E+01 -0.38207766139E+02  0.97691161242E+02  0.10506512464E+03  0.00000000000E+00 0. -1.
       -1    1    4    4    0  502 -0.42017425424E+02 -0.46975737910E+02  0.16768577409E+02  0.65217859363E+02  0.00000000000E+00 0.  1.
       -5    1    5    5    0  504 -0.41708022006E+02 -0.15629508574E+02  0.21937207265E+02  0.49871552016E+02  0.47000000000E+01 0.  1.
       11    1    6    6    0    0 -0.13877384990E+02  0.66723662204E+01  0.81936579829E+01  0.17442428623E+02  0.00000000000E+00 0. -1.
      -12    1    6    6    0    0  0.75721982047E+02  0.54490849323E+02 -0.68075638058E+02  0.11548750461E+03  0.00000000000E+00 0.  1.
</event>
<event>
12   0  0.1544783E-01  0.1852966E+03  0.7957747E-01  0.1168571E+00
       -1   -1    0    0    0  501  0.00000000000E+00  0.00000000000E+00  0.61108307472E+02  0.61108307472E+02  0.00000000000E+00 0. -1.
        1   -1    0    0  502    0  0.00000000000E+00  0.00000000000E+00 -0.57729015970E+03  0.57729015970E+03  0.00000000000E+00 0.  1.
        6    2    1    2  502    0 -0.60992983263E+02 -0.24389762779E+02 -0.20671219544E+03  0.27799182726E+03  0.17388076302E+03 0.  0.
       24    2    3    3    0    0 -0.58197970773E+02  0.20085043759E+02 -0.21008409626E+03  0.23305542524E+03  0.79931789351E+02 0.  0.
       -6    2    1    2    0  501  0.60992983263E+02  0.24389762779E+02 -0.30946965679E+03  0.36040663991E+03  0.17264551277E+03 0.  0.
      -24    2    5    5    0    0  0.56625992724E+02 -0.22322887302E+02 -0.29381058508E+03  0.31072325425E+03  0.80743213174E+02 0.  0.
        5    1    3    3  502    0 -0.27950124902E+01 -0.44474806538E+02  0.33719008229E+01  0.44936402021E+02  0.47000000000E+01 0. -1.
        4    1    4    4  503    0 -0.64087837547E+01  0.31261815368E+02 -0.25003116044E+02  0.40540466465E+02  0.00000000000E+00 0. -1.
       -3    1    4    4    0  503 -0.51789187018E+02 -0.11176771609E+02 -0.18508098022E+03  0.19251495878E+03  0.00000000000E+00 0.  1.
       -5    1    5    5    0  501  0.43669905393E+01  0.46712650081E+02 -0.15659071707E+02  0.49683385660E+02  0.47000000000E+01 0.  1.
       11    1    6    6    0    0  0.50510418918E+01  0.27999236882E+02 -0.68602895062E+02  0.74268617202E+02  0.00000000000E+00 0. -1.
      -12    1    6    6    0    0  0.51574950832E+02 -0.50322124184E+02 -0.22520769002E+03  0.23645463704E+03  0.00000000000E+00 0.  1.
</event>
<event>
12   0  0.1544783E-01  0.2411984E+03  0.7957747E-01  0.1126230E+00
       21   -1    0    0  504  503  0.00000000000E+00  0.00000000000E+00  0.77422028705E+03  0.77422028705E+03  0.00000000000E+00 0. -1.
       21   -1    0    0  501  504  0.00000000000E+00  0.00000000000E+00 -0.75573920491E+02  0.75573920491E+02  0.00000000000E+00 0.  1.
        6    2    1    2  501    0 -0.12509584040E+03 -0.11085673364E+03  0.39080161760E+03  0.45924130631E+03  0.17389217472E+03 0.  0.
       24    2    3    3    0    0 -0.15987562138E+02 -0.10352383429E+03  0.19223215956E+03  0.23250289434E+03  0.78304573930E+02 0.  0.
       -6    2    1    2    0  503  0.12509584040E+03  0.11085673364E+03  0.30784474896E+03  0.39055290123E+03  0.17269914452E+03 0.  0.
      -24    2    5    5    0    0  0.31350291929E+02  0.30889033727E+02  0.48059462957E+02  0.10298804644E+03  0.79748683508E+02 0.  0.
        5    1    3    3  501    0 -0.10910827826E+03 -0.73328993437E+01  0.19856945804E+03  0.22673841197E+03  0.47000000000E+01 0. -1.
      -11    1    4    4    0    0 -0.52438205843E+01 -0.15430489685E+02 -0.43065626915E+01  0.16856575822E+02  0.00000000000E+00 0.  1.
       12    1    4    4    0    0 -0.10743741553E+02 -0.88093344607E+02  0.19653872225E+03  0.21564631852E+03  0.00000000000E+00 0. -1.
       -5    1    5    5    0  503  0.93745548467E+02  0.79967699908E+02  0.25978528600E+03  0.28756485479E+03  0.47000000000E+01 0.  1.
        1    1    6    6  502    0 -0.49281277911E+01 -0.21956129272E+02  0.27794357964E+02  0.35761493128E+02  0.00000000000E+00 0. -1.
       -2    1    6    6    0  502  0.36278419720E+02  0.52845163000E+02  0.20265104993E+02  0.67226553312E+02  0.00000000000E+00 0.  1.
</event>
<event>
12   0  0.1544783E-01  0.2034150E+03  0.7957747E-01  0.1153230E+00
       -2   -1    0    0    0  501  0.00000000000E+00  0.00000000000E+00  0.63606539937E+02  0.63606539937E+02  0.00000000000E+00 0.  1.
        2   -1    0    0  502    0  0.00000000000E+00  0.00000000000E+00 -0.67826498989E+03  0.67826498989E+03  0.00000000000E+00 0. -1.
        6    2    1    2  502    0 -0.27250083274E+02 -0.10553384038E+03 -0.23179099204E+03  0.30815159142E+03  0.17131952836E+03 0.  0.
       24    2    3    3    0    0  0.11046739030E+02  0.54012302644E+01 -0.77397407559E+02  0.11416008277E+03  0.83011818851E+02 0.  0.
       -6    2    1    2    0  501  0.27250083274E+02  0.10553384038E+03 -0.38286745791E+03  0.43371993841E+03  0.17217879121E+03 0.  0.
      -24    2    5    5    0    0 -0.47816438555E+02  0.80647907757E+02 -0.26150611727E+03  0.28878906750E+03  0.78887130212E+02 0.  0.
        5    1    3    3  502    0 -0.38296822304E+02 -0.11093507065E+03 -0.15439358448E+03  0.19399150865E+03  0.47000000000E+01 0. -1.
      -11    1    4    4    0    0 -0.21095801044E+02 -0.21679785130E+02 -0.53063324365E+01  0.30711611304E+02  0.00000000000E+00 0.  1.
       12    1    4    4    0    0  0.32142540074E+02  0.27081015395E+02 -0.72091075122E+02  0.83448471463E+02  0.00000000000E+00 0. -1.
       -5    1    5    5    0  501  0.75066521828E+02  0.24885932627E+02 -0.12136134064E+03  0.14493087091E+03  0.47000000000E+01 0.  1.
        1    1    6    6  503    0 -0.53633956418E+01  0.28284757737E+02 -0.18326995072E+03  0.18551729939E+03  0.00000000000E+00 0. -1.
       -2    1    6    6    0  503 -0.42453042913E+02  0.52363150020E+02 -0.78236166549E+02  0.10327176811E+03  0.00000000000E+00 0.  1.
</event>
<event>
12   0  0.1544783E-01  0.1933638E+03  0.7957747E-01  0.1161513E+00
       -2   -1    0    0    0  501  0.00000000000E+00  0.00000000000E+00  0.36147688327E+03  0.36147688327E+03  0.00000000000E+00 0. -1.
        2   -1    0    0  502    0  0.00000000000E+00  0.00000000000E+00 -0.10365072214E+03  0.10365072214E+03  0.00000000000E+00 0.  1.
        6    2    1    2  502    0  0.83237641668E+02 -0.21786300983E+02  0.11889539745E+03  0.22767842862E+03  0.17406379125E+03 0.  0.
       24    2    3    3    0    0  0.54406127312E+02 -0.20212736345E+02 -0.62906400036E+01  0.99119623792E+02  0.80103347429E+02 0.  0.
       -6    2    1    2    0  501 -0.83237641668E+02  0.21786300983E+02  0.13893076368E+03  0.23744917679E+03  0.17227073622E+03 0.  0.
      -24    2    5    5    0    0 -0.16280823331E+02 -0.48834223043E+02  0.70311998822E+02  0.11828081343E+03  0.79979541747E+02 0.  0.
        5    1    3    3  502    0  0.28831514356E+02 -0.15735646372E+01  0.12518603746E+03  0.12855880483E+03  0.47000000000E+01 0. -1.
        2    1    4    4  503    0  0.22236346801E+02 -0.28934875943E+02  0.31871610960E+02  0.48450817847E+02  0.00000000000E+00 0. -1.
       -1    1    4    4    0  503  0.32169780511E+02  0.87221395980E+01 -0.38162250963E+02  0.50668805945E+02  0.00000000000E+00 0.  1.
       -5    1    5    5    0  501 -0.66956818337E+02  0.70620524025E+02  0.68618764856E+02  0.11916836336E+03  0.47000000000E+01 0.  1.
       13    1    6    6    0    0  0.66220677985E+01 -0.10097555356E+02  0.72236563406E+02  0.73238879694E+02  0.00000000000E+00 0. -1.
      -14    1    6    6    0    0 -0.22902891130E+02 -0.38736667686E+02 -0.19245645844E+01  0.45041933733E+02  0.00000000000E+00 0.  1.
</event>
<event>
12   0  0.1544783E-01  0.2002996E+03  0.7957747E-01  0.1155740E+00
       21   -1    0    0  504  503  0.00000000000E+00  0.00000000000E+00  0.18564308098E+03  0.18564308098E+03  0.00000000000E+00 0.  1.
       21   -1    0    0  501  504  0.00000000000E+00  0.00000000000E+00 -0.32240532998E+03  0.32240532998E+03  0.00000000000E+00 0.  1.
        6    2    1    2  501    0 -0.80536803933E+02 -0.58118844759E+02 -0.21545423518E+03  0.29417756515E+03  0.17394233377E+03 0.  0.
       24    2    3    3    0    0 -0.13217076567E+02  0.86398544258E+01 -0.38360469004E+02  0.93247324449E+02  0.83511674257E+02 0.  0.
       -6    2    1    2    0  503  0.80536803933E+02  0.58118844759E+02  0.78691986192E+02  0.21387084580E+03  0.17229141908E+03 0.  0.
      -24    2    5    5    0    0  0.24430822360E+02  0.17597639590E+02 -0.23658570718E+02  0.90227909344E+02  0.81699483817E+02 0.  0.
        5    1    3    3  501    0 -0.67319727367E+02 -0.66758699185E+02 -0.17709376618E+03  0.20093024070E+03  0.47000000000E+01 0. -1.
        4    1    4    4  502    0  0.22076420356E+02  0.28157742346E+02 -0.38979757307E+02  0.52911702576E+02  0.00000000000E+00 0. -1.
       -3    1    4    4    0  502 -0.35293496923E+02 -0.19517887920E+02  0.61928830308E+00  0.40335621873E+02  0.00000000000E+00 0.  1.
       -5    1    5    5    0  503  0.56105981574E+02  0.40521205169E+02  0.10235055691E+03  0.12364293646E+03  0.47000000000E+01 0.  1.
       13    1    6    6    0    0  0.16856564011E+02  0.46986905705E+02  0.27534188014E+01  0.49994943475E+02  0.00000000000E+00 0. -1.
      -14    1    6    6    0    0  0.75742583491E+01 -0.29389266115E+02 -0.26411989519E+02  0.40232965870E+02  0.00000000000E+00 0.  1.
</event>
<event>
12   0  0.1544783E-01  0.1935398E+03  0.7957747E-01  0.1161363E+00
       21   -1    0    0  504  503  0.00000000000E+00  0.00000000000E+00  0.43321384992E+03  0.43321384992E+03  0.00000000000E+00 0. -1.
       21   -1    0    0  501  504  0.00000000000E+00  0.00000000000E+00 -0.11041514021E+03  0.11041514021E+03  0.00000000000E+00 0. -1.
        6    2    1    2  501    0  0.43515407414E+02 -0.36912253635E+01  0.12842731710E+02  0.17821093336E+03  0.17229911545E+03 0.  0.
       24    2    3    3    0    0  0.19787736844E+02  0.58352181144E+02 -0.22674637555E+02  0.10273934824E+03  0.79023432694E+02 0.  0.
       -6    2    1    2    0  503 -0.43515407414E+02  0.36912253635E+01  0.30995597800E+03  0.36541805677E+03  0.18854822218E+03 0.  0.
      -24    2    5    5    0    0 -0.60313988212E+02 -0.21216295438E+02  0.31784033702E+03  0.33400420590E+03  0.80302063185E+02 0.  0.
        5    1    3    3  501    0  0.23727670571E+02 -0.62043406507E+02  0.35517369264E+02  0.75471585125E+02  0.47000000000E+01 0. -1.
      -13    1    4    4    0    0  0.23436842256E+02  0.30032022101E+02  0.26130092632E+02  0.46195126014E+02  0.00000000000E+00 0.  1.
       14    1    4    4    0    0 -0.36491054124E+01  0.28320159042E+02 -0.48804730187E+02  0.56544222226E+02  0.00000000000E+00 0. -1.
       -5    1    5    5    0  503  0.16798580798E+02  0.24907520802E+02 -0.78843590217E+01  0.31413850870E+02  0.47000000000E+01 0.  1.
        1    1    6    6  502    0 -0.19554645068E+02 -0.33614366021E+02  0.25583186813E+03  0.25877066004E+03  0.00000000000E+00 0. -1.
       -2    1    6    6    0  502 -0.40759343144E+02  0.12398070583E+02  0.62008468893E+02  0.75233545857E+02  0.00000000000E+00 0.  1.
</event>
<event>
12   0  0.1544783E-01  0.1829835E+03  0.7957747E-01  0.1170667E+00
       21   -1    0    0  501  503  0.00000000000E+00  0.00000000000E+00  0.21230888879E+03  0.21230888879E+03  0.00000000000E+00 0.  1.
       21   -1    0    0  503  504  0.00000000000E+00  0.00000000000E+00 -0.25857550719E+03  0.25857550719E+03  0.00000000000E+00 0.  1.
        6    2    1    2  501    0  0.41991090793E+02 -0.38252159265E+02  0.12514090946E+03  0.22168271061E+03  0.17394394950E+03 0.  0.
       24    2    3    3    0    0  0.33014597963E+02 -0.79974916494E+02  0.13281023642E+03  0.17806763901E+03  0.81139227379E+02 0.  0.
       -6    2    1    2    0  504 -0.41991090793E+02  0.38252159265E+02 -0.17140752785E+03  0.24920168537E+03  0.17173951203E+03 0.  0.
      -24    2    5    5    0    0 -0.50386640826E+02 -0.40108195268E+02 -0.10080627122E+03  0.14328918441E+03  0.78882223276E+02 0.  0.
        5    1    3    3  501    0  0.89764928300E+01  0.41722757229E+02 -0.76693269582E+01  0.43615071596E+02  0.47000000000E+01 0. -1.
      -13    1    4    4    0    0 -0.15709104848E+02 -0.14785723789E+02  0.75517160709E+02  0.78538112815E+02  0.00000000000E+00 0.  1.
       14    1    4    4    0    0  0.48723702810E+02 -0.65189192705E+02  0.57293075709E+02  0.99529526198E+02  0.00000000000E+00 0. -1.
       -5    1    5    5    0  504  0.83955500329E+01  0.78360354533E+02 -0.70601256628E+02  0.10591250096E+03  0.47000000000E+01 0.  1.
        1    1    6    6  502    0 -0.21088516387E+02 -0.73150864874E-01  0.88979932553E+01  0.22888974604E+02  0.00000000000E+00 0. -1.
       -2    1    6    6    0  502 -0.29298124439E+02 -0.40035044403E+02 -0.10970426448E+03  0.12040020980E+03  0.00000000000E+00 0.  1.
</event>
<event>
12   0  0.1544783E-01  0.2072188E+03  0.7957747E-01  0.1150232E+00
       21   -1    0    0  501  503  0.00000000000E+00  0.00000000000E+00  0.40514009765E+03  0.40514009765E+03  0.00000000000E+00 0.  1.
       21   -1    0    0  503  504  0.00000000000E+00  0.00000000000E+00 -0.17520932294E+03  0.17520932294E+03  0.00000000000E+00 0.  1.
        6    2    1    2  501    0  0.77131343912E+02 -0.65644851962E+02  0.30201763935E+03  0.36627075828E+03  0.18077921089E+03 0.  0.
       24    2    3    3    0    0 -0.18213647161E+02 -0.23741026626E+02  0.21329991920E+03  0.22937838534E+03  0.78881016996E+02 0.  0.
       -6    2    1    2    0  504 -0.77131343912E+02  0.65644851962E+02 -0.72086864637E+02  0.21407866231E+03  0.17428329467E+03 0.  0.
      -24    2    5    5    0    0 -0.79247554471E+02  0.10089968698E+03 -0.23014819153E+02  0.15343595964E+03  0.80944364144E+02 0.  0.
        5    1    3    3  501    0  0.95344991073E+02 -0.41903825336E+02  0.88717720155E+02  0.13689237294E+03  0.47000000000E+01 0. -1.
      -11    1    4    4    0    0  0.80498439319E+01 -0.40804386104E+02  0.17514350533E+03  0.18001401438E+03  0.00000000000E+00 0.  1.
       12    1    4    4    0    0 -0.26263491093E+02  0.17063359478E+02  0.38156413863E+02  0.49364370957E+02  0.00000000000E+00 0. -1.
       -5    1    5    5    0  504  0.21162105593E+01 -0.35254835020E+02 -0.49072045484E+02  0.60642702672E+02  0.47000000000E+01 0.  1.
        3    1    6    6  502    0 -0.54643403897E+02  0.34940518557E+02  0.23581506295E+02  0.69013251377E+02  0.00000000000E+00 0. -1.
       -4    1    6    6    0  502 -0.24604150574E+02  0.65959168425E+02 -0.46596325449E+02  0.84422708261E+02  0.00000000000E+00 0.  1.
</event>
<event>
12   0  0.1544783E-01  0.2335639E+03  0.7957747E-01  0.1131230E+00
       21   -1    0    0  501  503  0.00000000000E+00  0.00000000000E+00  0.25073267725E+03  0.25073267725E+03  0.00000000000E+00 0.  1.
       21   -1    0    0  503  504  0.00000000000E+00  0.00000000000E+00 -0.22189993267E+03  0.22189993267E+03  0.00000000000E+00 0.  1.
        6    2    1    2  501    0  0.14618838978E+03  0.57489164085E+02  0.55525731662E+02  0.24007334155E+03  0.17284690669E+03 0.  0.
       24    2    3    3    0    0  0.46741212629E+02  0.64500795850E+02  0.77710817995E+02  0.13783258608E+03  0.81325008016E+02 0.  0.
       -6    2    1    2    0  504 -0.14618838978E+03 -0.57489164085E+02 -0.26692987085E+02  0.23255926837E+03  0.16939671913E+03 0.  0.
      -24    2    5    5    0    0 -0.13864960556E+03 -0.69960820271E+01  0.23217485120E+02  0.16100837852E+03  0.78179204717E+02 0.  0.
        5    1    3    3  501    0  0.99447177153E+02 -0.70116317641E+01 -0.22185086333E+02  0.10224075547E+03  0.47000000000E+01 0. -1.
      -13    1    4    4    0    0 -0.63213449899E+01  0.27810791508E+02 -0.88632490045E+01  0.29865644304E+02  0.00000000000E+00 0.  1.
       14    1    4    4    0    0  0.53062557619E+02  0.36690004341E+02  0.86574066999E+02  0.10796694178E+03  0.00000000000E+00 0. -1.
       -5    1    5    5    0  504 -0.75387842176E+01 -0.50493082058E+02 -0.49910472205E+02  0.71550889854E+02  0.47000000000E+01 0.  1.
        1    1    6    6  502    0 -0.10308720440E+03 -0.30845505470E+02  0.40307388847E+02  0.11490475410E+03  0.00000000000E+00 0. -1.
       -2    1    6    6    0  502 -0.35562401168E+02  0.23849423443E+02 -0.17089903727E+02  0.46103624421E+02  0.00000000000E+00 0.  1.
</event>
<event>
12   0  0.1544783E-01  0.2098366E+03  0.7957747E-01  0.1148209E+00
       21   -1    0    0  504  503  0.00000000000E+00  0.00000000000E+00  0.51516991173E+03  0.51516991173E+03  0.00000000000E+00 0. -1.
       21   -1    0    0  501  504  0.00000000000E+00  0.00000000000E+00 -0.87114038843E+02  0.87114038843E+02  0.00000000000E+00 0. -1.
        6    2    1    2  501    0  0.11502118546E+03  0.20678047628E+02  0.26095300013E+03  0.33404007313E+03  0.17271029911E+03 0.  0.
       24    2    3    3    0    0  0.64174598984E+02 -0.44014639986E+02  0.20627950322E+03  0.23513708808E+03  0.81746859593E+02 0.  0.
       -6    2    1    2    0  503 -0.11502118546E+03 -0.20678047628E+02  0.16710287276E+03  0.26824387745E+03  0.17428124669E+03 0.  0.
      -24    2    5    5    0    0 -0.13555808320E+03 -0.26144815216E+02  0.18171445045E+03  0.24202865441E+03  0.80611306707E+02 0.  0.
        5    1    3    3  501    0  0.50846586473E+02  0.64692687614E+02  0.54673496909E+02  0.98902985045E+02  0.47000000000E+01 0. -1.
      -13    1    4    4    0    0 -0.16294676299E+02 -0.25538259919E+02  0.54246748382E+02  0.62132349910E+02  0.00000000000E+00 0.  1.
       14    1    4    4    0    0  0.80469275283E+02 -0.18476380067E+02  0.15203275484E+03  0.17300473817E+03  0.00000000000E+00 0. -1.
       -5    1    5    5    0  503  0.20536897743E+02  0.54667675877E+01 -0.14611577687E+02  0.26215223044E+02  0.47000000000E+01 0.  1.
        1    1    6    6  502    0 -0.36985448096E+02  0.13822719499E+02  0.10118528827E+03  0.10861608309E+03  0.00000000000E+00 0. -1.
       -2    1    6    6    0  502 -0.98572635103E+02 -0.39967534715E+02  0.80529162180E+02  0.13341257131E+03  0.00000000000E+00 0.  1.
</event>
<event>
12   0  0.1544783E-01  0.1849600E+03  0.7957747E-01  0.1168874E+00
       21   -1    0    0  504  503  0.00000000000E+00  0.00000000000E+00  0.10506704745E+03  0.10506704745E+03  0.00000000000E+00 0.  1.
       21   -1    0    0  501  504  0.00000000000E+00  0.00000000000E+00 -0.34868693268E+03  0.34868693268E+03  0.00000000000E+00 0.  1.
        6    2    1    2  501    0  0.30955232966E+02  0.56993278437E+02 -0.60709611236E+02  0.19362640774E+03  0.17204379862E+03 0.  0.
       24    2    3    3    0    0  0.48527119749E+02  0.86743793337E+02 -0.83390131215E+02  0.15202880771E+03  0.79243153362E+02 0.  0.
       -6    2    1    2    0  503 -0.30955232966E+02 -0.56993278437E+02 -0.18291027399E+03  0.26012757239E+03  0.17321583459E+03 0.  0.
      -24    2    5    5    0    0  0.15120855956E+02  0.72966716308E+01 -0.30876062612E+02  0.88684593299E+02  0.81423240813E+02 0.  0.
        5    1    3    3  501    0 -0.17571886783E+02 -0.29750514900E+02  0.22680519979E+02  0.41597600032E+02  0.47000000000E+01 0. -1.
        2    1    4    4  502    0  0.59588526308E+02  0.31477372760E+02 -0.62521681611E+02  0.91927026140E+02  0.00000000000E+00 0. -1.
       -1    1    4    4    0  502 -0.11061406559E+02  0.55266420577E+02 -0.20868449604E+02  0.60101781566E+02  0.00000000000E+00 0.  1.
       -5    1    5    5    0  503 -0.46076088922E+02 -0.64289950068E+02 -0.15203421138E+03  0.17144297909E+03  0.47000000000E+01 0.  1.
       11    1    6    6    0    0  0.69177822784E+01  0.23346026892E+02  0.22003014876E+02  0.32818064339E+02  0.00000000000E+00 0. -1.
      -12    1    6    6    0    0  0.82030736780E+01 -0.16049355261E+02 -0.52879077489E+02  0.55866528961E+02  0.00000000000E+00 0.  1.
</event>
<event>
12   0  0.1544783E-01  0.1881455E+03  0.7957747E-01  0.1166034E+00
       21   -1    0    0  501  503  0.00000000000E+00  0.00000000000E+00  0.81380705524E+02  0.81380705524E+02  0.00000000000E+00 0. -1.
       21   -1    0    0  503  504  0.00000000000E+00  0.00000000000E+00 -0.68784911239E+03  0.68784911239E+03  0.00000000000E+00 0.  1.
        6    2    1    2  501    0 -0.16676504814E+02  0.71925598288E+02 -0.69834590900E+02  0.20068784472E+03  0.17305300757E+03 0.  0.
       24    2    3    3    0    0  0.19744627645E+01  0.63038205435E+02 -0.11403215466E+03  0.15167397948E+03  0.77614108943E+02 0.  0.
       -6    2    1    2    0  504  0.16676504814E+02 -0.71925598288E+02 -0.53663381597E+03  0.56854197320E+03  0.17266361906E+03 0.  0.
      -24    2    5    5    0    0 -0.20637823464E+02  0.23371074961E+02 -0.24717354069E+03  0.26148634959E+03  0.79424334437E+02 0.  0.
        5    1    3    3  501    0 -0.18650967578E+02  0.88873928530E+01  0.44197563761E+02  0.49013865240E+02  0.47000000000E+01 0. -1.
      -11    1    4    4    0    0  0.32171734240E+02  0.30111525442E+01 -0.30121328531E+02  0.44174449132E+02  0.00000000000E+00 0.  1.
       12    1    4    4    0    0 -0.30197271475E+02  0.60027052890E+02 -0.83910826130E+02  0.10749953035E+03  0.00000000000E+00 0. -1.
       -5    1    5    5    0  504  0.37314328278E+02 -0.95296673249E+02 -0.28946027528E+03  0.30705562361E+03  0.47000000000E+01 0.  1.
        1    1    6    6  502    0 -0.38398506918E+02  0.35043169793E+02 -0.22437380703E+03  0.23031733405E+03  0.00000000000E+00 0. -1.
       -2    1    6    6    0  502  0.17760683454E+02 -0.11672094832E+02 -0.22799733656E+02  0.31169015533E+02  0.00000000000E+00 0.  1.
</event>
<event>
12   0  0.1544783E-01  0.1879004E+03  0.7957747E-01  0.1166250E+00
       21   -1    0    0  504  503  0.00000000000E+00  0.00000000000E+00  0.81960782099E+02  0.81960782099E+02  0.00000000000E+00 0.  1.
       21   -1    0    0  501  504  0.00000000000E+00  0.00000000000E+00 -0.42973037009E+03  0.42973037009E+03  0.00000000000E+00 0. -1.
        6    2    1    2  501    0  0.11218399692E+02  0.68098055143E+02 -0.15663399615E+03  0.24366246188E+03  0.17341853699E+03 0.  0.
       24    2    3    3    0    0  0.47170716719E+02  0.88555908168E+01 -0.28035517356E+02  0.97505363428E+02  0.80111220558E+02 0.  0.
       -6    2    1    2    0  503 -0.11218399692E+02 -0.68098055143E+02 -0.19113559184E+03  0.26802869031E+03  0.17476660652E+03 0.  0.
      -24    2    5    5    0    0 -0.26847237792E+02  0.28173511245E+02 -0.99427469599E+02  0.13406994756E+03  0.81082724511E+02 0.  0.
        5    1    3    3  501    0 -0.35952317027E+02  0.59242464326E+02 -0.12859847880E+03  0.14615709845E+03  0.47000000000E+01 0. -1.
        2    1    4    4  502    0  0.31922603509E+02 -0.32158059534E+02 -0.28893781539E+02  0.53740524927E+02  0.00000000000E+00 0. -1.
       -1    1    4    4    0  502  0.15248113210E+02  0.41013650351E+02  0.85826418354E+00  0.43764838501E+02  0.00000000000E+00 0.  1.
       -5    1    5    5    0  503  0.15628838099E+02 -0.96271566388E+02 -0.91708122239E+02  0.13395874275E+03  0.47000000000E+01 0.  1.
       13    1    6    6    0    0  0.29392978623E+01 -0.24509658908E+02 -0.50629500772E+02  0.56326807118E+02  0.00000000000E+00 0. -1.
      -14    1    6    6    0    0 -0.29786535654E+02  0.52683170152E+02 -0.48797968826E+02  0.77743140438E+02  0.00000000000E+00 0.  1.
</event>
<event>
12   0  0.1544783E-01  0.1823552E+03  0.7957747E-01  0.1171243E+00
       21   -1    0    0  501  503  0.00000000000E+00  0.00000000000E+00  0.77465910763E+02  0.77465910763E+02  0.00000000000E+00 0.  1.
       21   -1    0    0  503  504  0.00000000000E+00  0.00000000000E+00 -0.58278765152E+03  0.58278765152E+03  0.00000000000E+00 0.  1.
        6    2    1    2  501    0  0.40232945548E+02 -0.38833128976E+02 -0.82250578710E+02  0.19955559737E+03  0.17300455754E+03 0.  0.
       24    2    3    3    0    0  0.28213965475E+02 -0.73306486653E+02 -0.10691549400E+03  0.15524627197E+03  0.80626380721E+02 0.  0.
       -6    2    1    2    0  504 -0.40232945548E+02  0.38833128976E+02 -0.42307116204E+03  0.46069796491E+03  0.17357046092E+03 0.  0.
      -24    2    5    5    0    0  0.62584414381E+01  0.38510068260E+02 -0.39761108600E+03  0.40748275182E+03  0.80158741698E+02 0.  0.
        5    1    3    3  501    0  0.12018980072E+02  0.34473357677E+02  0.24664915292E+02  0.44309325405E+02  0.47000000000E+01 0. -1.
        2    1    4    4  502    0  0.22302868029E+02 -0.23724626830E+02 -0.99590918425E+02  0.10477894289E+03  0.00000000000E+00 0. -1.
       -1    1    4    4    0  502  0.59110974464E+01 -0.49581859823E+02 -0.73245755766E+01  0.50467329075E+02  0.00000000000E+00 0.  1.
       -5    1    5    5    0  504 -0.46491386986E+02  0.32306071587E+00 -0.25460076040E+02  0.53215213088E+02  0.47000000000E+01 0.  1.
       13    1    6    6    0    0  0.18105977723E+02 -0.20577432851E+02 -0.92421595832E+02  0.96400251805E+02  0.00000000000E+00 0. -1.
      -14    1    6    6    0    0 -0.11847536285E+02  0.59087501111E+02 -0.30518949017E+03  0.31108250001E+03  0.00000000000E+00 0.  1.
</event>
<event>
12   0  0.1544783E-01  0.1761903E+03  0.7957747E-01  0.1177028E+00
       21   -1    0    0  504  503  0.00000000000E+00  0.00000000000E+00  0.24300846060E+03  0.24300846060E+03  0.00000000000E+00 0.  1.
       21   -1    0    0  501  504  0.00000000000E+00  0.00000000000E+00 -0.14400113520E+03  0.14400113520E+03  0.00000000000E+00 0.  1.
        6    2    1    2  501    0 -0.22662000379E+02 -0.14505201047E+02 -0.16676717706E+02  0.17697782180E+03  0.17412371860E+03 0.  0.
       24    2    3    3    0    0  0.13951307970E+02 -0.50634251562E+01 -0.73097900033E+02  0.10889609668E+03  0.79339647181E+02 0.  0.
       -6    2    1    2    0  503  0.22662000379E+02  0.14505201047E+02  0.11568404311E+03  0.21003177399E+03  0.17322407783E+03 0.  0.
      -24    2    5    5    0    0 -0.30583147126E+02  0.58730108639E+02  0.57774032649E+02  0.11966282194E+03  0.81220671979E+02 0.  0.
        5    1    3    3  501    0 -0.36613308349E+02 -0.94417758909E+01  0.56421182327E+02  0.68081725120E+02  0.47000000000E+01 0. -1.
      -11    1    4    4    0    0  0.18058851545E+02  0.19187443311E+02  0.51724288451E+01  0.26852078506E+02  0.00000000000E+00 0.  1.
       12    1    4    4    0    0 -0.41075435750E+01 -0.24250868467E+02 -0.78270328878E+02  0.82044018175E+02  0.00000000000E+00 0. -1.
       -5    1    5    5    0  503  0.53245147505E+02 -0.44224907592E+02  0.57910010458E+02  0.90368952055E+02  0.47000000000E+01 0.  1.
        3    1    6    6  502    0  0.13139070199E+02  0.23387676956E+02 -0.12560135291E+02  0.29620526627E+02  0.00000000000E+00 0. -1.
       -4    1    6    6    0  502 -0.43722217325E+02  0.35342431683E+02  0.70334167940E+02  0.90042295311E+02  0.00000000000E+00 0.  1.
</event>
<event>
12   0  0.1544783E-01  0.2121830E+03  0.7957747E-01  0.1146423E+00
       21   -1    0    0  501  503  0.00000000000E+00  0.00000000000E+00  0.95632135059E+02  0.95632135059E+02  0.00000000000E+00 0.  1.
       21   -1    0    0  503  504  0.00000000000E+00  0.00000000000E+00 -0.54548918358E+03  0.54548918358E+03  0.00000000000E+00 0.  1.
        6    2    1    2  501    0 -0.12162574226E+03 -0.10157703700E+02 -0.34468970438E+03  0.40476239552E+03  0.17356729068E+03 0.  0.
       24    2    3    3    0    0 -0.11931734223E+03 -0.57182087012E+02 -0.20156702215E+03  0.25402151352E+03  0.79945266791E+02 0.  0.
       -6    2    1    2    0  504  0.12162574226E+03  0.10157703700E+02 -0.10516734414E+03  0.23635892312E+03  0.17294325699E+03 0.  0.
      -24    2    5    5    0    0  0.59923560161E+02  0.54366371811E+02 -0.92254867448E+01  0.11393141145E+03  0.79678864596E+02 0.  0.
        5    1    3    3  501    0 -0.23084000364E+01  0.47024383312E+02 -0.14312268223E+03  0.15074088200E+03  0.47000000000E+01 0. -1.
        2    1    4    4  502    0 -0.31277279136E+02 -0.37786068353E+02 -0.12990611502E+03  0.13885839504E+03  0.00000000000E+00 0. -1.
       -1    1    4    4    0  502 -0.88040063092E+02 -0.19396018658E+02 -0.71660907126E+02  0.11516311848E+03  0.00000000000E+00 0.  1.
       -5    1    5    5    0  504  0.61702182104E+02 -0.44208668111E+02 -0.95941857394E+02  0.12242751167E+03  0.47000000000E+01 0.  1.
       13    1    6    6    0    0  0.92141869756E+01 -0.20645517623E+02 -0.57141400171E+01  0.23319306072E+02  0.00000000000E+00 0. -1.
      -14    1    6    6    0    0  0.50709373186E+02  0.75011889434E+02 -0.35113467277E+01  0.90612105379E+02  0.00000000000E+00 0.  1.
</event>
<event>
12   0  0.1544783E-01  0.2473529E+03  0.7957747E-01  0.1122344E+00
        2   -1    0    0  502    0  0.00000000000E+00  0.00000000000E+00  0.50893729412E+03  0.50893729412E+03  0.00000000000E+00 0.  1.
       -2   -1    0    0    0  501  0.00000000000E+00  0.00000000000E+00 -0.24629652436E+03  0.24629652436E+03  0.00000000000E+00 0. -1.
        6    2    1    2  502    0  0.17597481633E+03 -0.17351795826E+02  0.40153103043E+03  0.47167976491E+03  0.17316584948E+03 0.  0.
       24    2    3    3    0    0  0.13616291008E+03  0.25399019927E+02  0.37397820494E+03  0.40691968215E+03  0.80860878378E+02 0.  0.
       -6    2    1    2    0  501 -0.17597481633E+03  0.17351795826E+02 -0.13889026067E+03  0.28355405357E+03  0.17275466994E+03 0.  0.
      -24    2    5    5    0    0 -0.14156829220E+03 -0.15401178817E+02 -0.33621895097E+02  0.16796821949E+03  0.82487049052E+02 0.  0.
        5    1    3    3  502    0  0.39811906257E+02 -0.42750815753E+02  0.27552825484E+02  0.64760082763E+02  0.47000000000E+01 0. -1.
      -11    1    4    4    0    0  0.87283906256E+02  0.54028953051E+02  0.21760425688E+03  0.24060178859E+03  0.00000000000E+00 0.  1.
       12    1    4    4    0    0  0.48879003821E+02 -0.28629933124E+02  0.15637394806E+03  0.16631789356E+03  0.00000000000E+00 0. -1.
       -5    1    5    5    0  501 -0.34406524131E+02  0.32752974643E+02 -0.10526836557E+03  0.11558583408E+03  0.47000000000E+01 0.  1.
        3    1    6    6  503    0 -0.52496929642E+02  0.34028950856E+02 -0.16160812791E+02  0.64614773761E+02  0.00000000000E+00 0. -1.
       -4    1    6    6    0  503 -0.89071362561E+02 -0.49430129673E+02 -0.17461082306E+02  0.10335344573E+03  0.00000000000E+00 0.  1.
</event>
<event>
12   0  0.1544783E-01  0.2657277E+03  0.7957747E-01  0.1111437E+00
        3   -1    0    0  502    0  0.00000000000E+00  0.00000000000E+00  0.68490715788E+02  0.68490715788E+02  0.00000000000E+00 0. -1.
       -3   -1    0    0    0  501  0.00000000000E+00  0.00000000000E+00 -0.14854982413E+04  0.14854982413E+04  0.00000000000E+00 0.  1.
        6    2    1    2  502    0  0.17726648469E+03  0.95014291021E+02 -0.27906896753E+03  0.38548116802E+03  0.17396873330E+03 0.  0.
       24    2    3    3    0    0  0.59182093349E+02  0.76033674265E+02 -0.22190869371E+03  0.25284039679E+03  0.73492571775E+02 0.  0.
       -6    2    1    2    0  501 -0.17726648469E+03 -0.95014291021E+02 -0.11379385580E+04  0.11685077891E+04  0.17336426761E+03 0.  0.
      -24    2    5    5    0    0 -0.28940296369E+02 -0.71425047202E+02 -0.39350269582E+03  0.40905801888E+03  0.80901255075E+02 0.  0.
        5    1    3    3  502    0  0.11808439134E+03  0.18980616755E+02 -0.57160273812E+02  0.13264077123E+03  0.47000000000E+01 0. -1.
      -11    1    4    4    0    0 -0.31320920596E+01 -0.92465379157E+01 -0.37491980401E+01  0.10457769841E+02  0.00000000000E+00 0.  1.
       12    1    4    4    0    0  0.62314185409E+02  0.85280212181E+02 -0.21815949567E+03  0.24238262695E+03  0.00000000000E+00 0. -1.
       -5    1    5    5    0  501 -0.14832618832E+03 -0.23589243819E+02 -0.74443586220E+03  0.75944977023E+03  0.47000000000E+01 0.  1.
        3    1    6    6  503    0 -0.86098578014E+01 -0.85394953735E+02 -0.27785978829E+03  0.29081349646E+03  0.00000000000E+00 0. -1.
       -4    1    6    6    0  503 -0.20330438568E+02  0.13969906533E+02 -0.11564290753E+03  0.11824452242E+03  0.00000000000E+00 0.  1.
</event>
<event>
12   0  0.1544783E-01  0.2548373E+03  0.7957747E-01  0.1117781E+00
       21   -1    0    0  501  503  0.00000000000E+00  0.00000000000E+00  0.30262717253E+03  0.30262717253E+03  0.00000000000E+00 0. -1.
       21   -1    0    0  503  504  0.00000000000E+00  0.00000000000E+00 -0.21235946717E+03  0.21235946717E+03  0.00000000000E+00 0.  1.
        6    2    1    2  501    0 -0.18627464588E+03  0.10803733069E+02  0.41210385480E+02  0.25547037648E+03  0.16956371382E+03 0.  0.
       24    2    3    3    0    0 -0.77549458438E+02 -0.54316632950E+02  0.79802005597E+01  0.12436673944E+03  0.80244545983E+02 0.  0.
       -6    2    1    2    0  504  0.18627464588E+03 -0.10803733069E+02  0.49057319883E+02  0.25951626322E+03  0.17357161604E+03 0.  0.
      -24    2    5    5    0    0  0.16543791519E+03 -0.42552385071E+02 -0.10444445428E+02  0.18877238486E+03  0.79658757133E+02 0.  0.
        5    1    3    3  501    0 -0.10872518744E+03  0.65120366019E+02  0.33230184920E+02  0.13110363704E+03  0.47000000000E+01 0. -1.
      -11    1    4    4    0    0 -0.40073487603E+02  0.16777560450E+02 -0.13173571192E+01  0.43463851337E+02  0.00000000000E+00 0.  1.
       12    1    4    4    0    0 -0.37475970836E+02 -0.71094193400E+02  0.92975576789E+01  0.80902888108E+02  0.00000000000E+00 0. -1.
       -5    1    5    5    0  504  0.20836730692E+02  0.31748652002E+02  0.59501765310E+02  0.70743878356E+02  0.47000000000E+01 0.  1.
        1    1    6    6  502    0  0.87757958434E+02  0.16088201726E+02  0.84740414241E+01  0.89621977669E+02  0.00000000000E+00 0. -1.
       -2    1    6    6    0  502  0.77679956756E+02 -0.58640586797E+02 -0.18918486852E+02  0.99150407191E+02  0.00000000000E+00 0.  1.
</event>
<event>
12   0  0.1544783E-01  0.1946912E+03  0.7957747E-01  0.1160388E+00
       21   -1    0    0  504  503  0.00000000000E+00  0.00000000000E+00  0.43549759612E+03  0.43549759612E+03  0.00000000000E+00 0.  1.
       21   -1    0    0  501  504  0.00000000000E+00  0.00000000000E+00 -0.89155012263E+02  0.89155012263E+02  0.00000000000E+00 0.  1.
        6    2    1    2  501    0 -0.87644883996E+02 -0.15483900262E+02  0.13118617878E+03  0.23448549398E+03  0.17277805568E+03 0.  0.
       24    2    3    3    0    0 -0.63812757276E+02  0.57679751219E+02  0.73263662204E+02  0.13805936635E+03  0.79333490695E+02 0.  0.
       -6    2    1    2    0  503  0.87644883996E+02  0.15483900262E+02  0.21515640508E+03  0.29016711441E+03  0.17315686178E+03 0.  0.
      -24    2    5    5    0    0  0.79749801701E+02  0.72228758877E+02  0.17138377685E+03  0.21791447234E+03  0.80853533066E+02 0.  0.
        5    1    3    3  501    0 -0.23832126720E+02 -0.73163651481E+02  0.57922516579E+02  0.96426127626E+02  0.47000000000E+01 0. -1.
        2    1    4    4  502    0 -0.24530111284E+02  0.34726153203E+02 -0.95455654183E+01  0.43574647389E+02  0.00000000000E+00 0. -1.
       -1    1    4    4    0  502 -0.39282645991E+02  0.22953598016E+02  0.82809227622E+02  0.94484718962E+02  0.00000000000E+00 0.  1.
       -5    1    5    5    0  503  0.78950822949E+01 -0.56744858614E+02  0.43772628230E+02  0.72252642068E+02  0.47000000000E+01 0.  1.
       11    1    6    6    0    0  0.39823255745E+01  0.40034842091E+02  0.10406308462E+03  0.11156958850E+03  0.00000000000E+00 0. -1.
      -12    1    6    6    0    0  0.75767476126E+02  0.32193916785E+02  0.67320692226E+02  0.10634488384E+03  0.00000000000E+00 0.  1.
</event>
<event>
12   0  0.1544783E-01  0.1766342E+03  0.7957747E-01  0.1176603E+00
       21   -1    0    0  504  503  0.00000000000E+00  0.00000000000E+00  0.30014929710E+03  0.30014929710E+03  0.00000000000E+00 0.  1.
       21   -1    0    0  501  504  0.00000000000E+00  0.00000000000E+00 -0.32892139335E+03  0.32892139335E+03  0.00000000000E+00 0. -1.
        6    2    1    2  501    0 -0.44409376482E+01  0.33996870942E+02 -0.27486549610E+03  0.32614889314E+03  0.17218173650E+03 0.  0.
       24    2    3    3    0    0  0.39126132044E+02 -0.20044166314E+02 -0.21988018918E+03  0.23746971155E+03  0.78178919782E+02 0.  0.
       -6    2    1    2    0  503  0.44409376482E+01 -0.33996870942E+02  0.24609339985E+03  0.30292179731E+03  0.17327476642E+03 0.  0.
      -24    2    5    5    0    0  0.34934877237E+02 -0.10206012198E+02  0.24917908809E+03  0.26383859397E+03  0.78714531047E+02 0.  0.
        5    1    3    3  501    0 -0.43567069693E+02  0.54041037256E+02 -0.54985306927E+02  0.88679181588E+02  0.47000000000E+01 0. -1.
        4    1    4    4  502    0  0.41421364333E+02  0.22444873673E+02 -0.11854003542E+03  0.12755877773E+03  0.00000000000E+00 0. -1.
       -3    1    4    4    0  502 -0.22952322887E+01 -0.42489039987E+02 -0.10134015375E+03  0.10991093382E+03  0.00000000000E+00 0.  1.
       -5    1    5    5    0  503 -0.30493939589E+02 -0.23790858744E+02 -0.30856882380E+01  0.39083203341E+02  0.47000000000E+01 0.  1.
       13    1    6    6    0    0  0.38601118949E+02  0.20619996023E+02  0.74340973811E+02  0.86265931904E+02  0.00000000000E+00 0. -1.
      -14    1    6    6    0    0 -0.36662417119E+01 -0.30826008221E+02  0.17483811428E+03  0.17757266207E+03  0.00000000000E+00 0.  1.
</event>
<event>
12   0  0.1544783E-01  0.3008600E+03  0.7957747E-01  0.1093031E+00
       21   -1    0    0  504  503  0.00000000000E+00  0.00000000000E+00  0.15384151812E+03  0.15384151812E+03  0.00000000000E+00 0.  1.
       21   -1    0    0  501  504  0.00000000000E+00  0.00000000000E+00 -0.11570264169E+04  0.11570264169E+04  0.00000000000E+00 0.  1.
        6    2    1    2  501    0 -0.23575507759E+03  0.60503253972E+02 -0.96244289397E+03  0.10072618138E+04  0.17040814851E+03 0.  0.
       24    2    3    3    0    0 -0.12927075020E+03 -0.11314160744E+02 -0.68837212444E+03  0.70455150718E+03  0.75483160197E+02 0.  0.
       -6    2    1    2    0  503  0.23575507759E+03 -0.60503253972E+02 -0.40742004781E+02  0.30360612118E+03  0.17684927342E+03 0.  0.
      -24    2    5    5    0    0  0.19493673299E+03 -0.10727396744E+03 -0.54151485446E+02  0.23992299102E+03  0.71572510695E+02 0.  0.
        5    1    3    3  501    0 -0.10648432739E+03  0.71817414716E+02 -0.27407076954E+03  0.30271030665E+03  0.47000000000E+01 0. -1.
        2    1    4    4  502    0 -0.50593220626E+01 -0.24674508567E+02 -0.11794300875E+03  0.12060257636E+03  0.00000000000E+00 0. -1.
       -1    1    4    4    0  502 -0.12421142814E+03  0.13360347823E+02 -0.57042911569E+03  0.58394893082E+03  0.00000000000E+00 0.  1.
       -5    1    5    5    0  503  0.40818344607E+02  0.46770713466E+02  0.13409480664E+02  0.63683130154E+02  0.47000000000E+01 0.  1.
       11    1    6    6    0    0  0.79532631525E+02 -0.12983662911E+02 -0.40730254798E+02  0.90293790682E+02  0.00000000000E+00 0. -1.
      -12    1    6    6    0    0  0.11540410146E+03 -0.94290304527E+02 -0.13421230648E+02  0.14962920034E+03  0.00000000000E+00 0.  1.
</event>
<event>
12   0  0.1544783E-01  0.2792884E+03  0.7957747E-01  0.1103985E+00
       21   -1    0    0  501  503  0.00000000000E+00  0.00000000000E+00  0.62298373140E+03  0.62298373140E+03  0.00000000000E+00 0.  1.
       21   -1    0    0  503  504  0.00000000000E+00  0.00000000000E+00 -0.12651628898E+03  0.12651628898E+03  0.00000000000E+00 0. -1.
        6    2    1    2  501    0  0.21497944401E+03  0.39714881911E+02  0.28976144388E+03  0.40244712735E+03  0.17380610680E+03 0.  0.
       24    2    3    3    0    0  0.23093094766E+03  0.93132453519E+01  0.25759421444E+03  0.35516572906E+03  0.79825288335E+02 0.  0.
       -6    2    1    2    0  504 -0.21497944401E+03 -0.39714881911E+02  0.20670599853E+03  0.34705289303E+03  0.17298817168E+03 0.  0.
      -24    2    5    5    0    0 -0.68038198324E+02  0.15298293473E+02  0.38339328849E+02  0.11686252701E+03  0.85578688168E+02 0.  0.
        5    1    3    3  501    0 -0.15951503658E+02  0.30401636560E+02  0.32167229448E+02  0.47281398296E+02  0.47000000000E+01 0. -1.
      -13    1    4    4    0    0  0.80056354373E+02 -0.28648737876E+02  0.61942915450E+02  0.10519835945E+03  0.00000000000E+00 0.  1.
       14    1    4    4    0    0  0.15087459329E+03  0.37961983228E+02  0.19565129899E+03  0.24996736960E+03  0.00000000000E+00 0. -1.
       -5    1    5    5    0  504 -0.14694124568E+03 -0.55013175384E+02  0.16836666968E+03  0.23019036602E+03  0.47000000000E+01 0.  1.
        3    1    6    6  502    0 -0.71045781710E+02 -0.20537698856E+02  0.20639637239E+02  0.76780823116E+02  0.00000000000E+00 0. -1.
       -4    1    6    6    0  502  0.30075833859E+01  0.35835992329E+02  0.17699691610E+02  0.40081703895E+02  0.00000000000E+00 0.  1.
</event>
<event>
12   0  0.1544783E-01  0.2475790E+03  0.7957747E-01  0.1122204E+00
       21   -1    0    0  504  503  0.00000000000E+00  0.00000000000E+00  0.47210275286E+03  0.47210275286E+03  0.00000000000E+00 0. -1.
       21   -1    0    0  501  504  0.00000000000E+00  0.00000000000E+00 -0.12988268557E+03  0.12988268557E+03  0.00000000000E+00 0.  1.
        6    2    1    2  501    0 -0.51897429293E+02 -0.16943404139E+03  0.16404242457E+03  0.29699374966E+03  0.17289919816E+03 0.  0.
       24    2    3    3    0    0 -0.67695957774E+02 -0.71437289107E+02  0.23613412981E+02  0.12496074626E+03  0.73290967107E+02 0.  0.
       -6    2    1    2    0  503  0.51897429293E+02  0.16943404139E+03  0.17817764272E+03  0.30499168877E+03  0.17283350457E+03 0.  0.
      -24    2    5    5    0    0  0.37763855418E+02  0.10131181354E+02  0.63530686624E+02  0.10815883158E+03  0.78316250512E+02 0.  0.
        5    1    3    3  501    0  0.15798528481E+02 -0.97996752286E+02  0.14042901159E+03  0.17203300339E+03  0.47000000000E+01 0. -1.
        4    1    4    4  502    0 -0.75723811459E+02 -0.32009752176E+02  0.19667289673E+02  0.84531190334E+02  0.00000000000E+00 0. -1.
       -3    1    4    4    0  502  0.80278536852E+01 -0.39427536931E+02  0.39461233080E+01  0.40429555927E+02  0.00000000000E+00 0.  1.
       -5    1    5    5    0  503  0.14133573875E+02  0.15930286004E+03  0.11464695610E+03  0.19683285719E+03  0.47000000000E+01 0.  1.
       13    1    6    6    0    0  0.24620542330E+02  0.34249772446E+02  0.68305217650E+02  0.80279641101E+02  0.00000000000E+00 0. -1.
      -14    1    6    6    0    0  0.13143313089E+02 -0.24118591092E+02 -0.47745310259E+01  0.27879190479E+02  0.00000000000E+00 0.  1.
</event>
<event>
12   0  0.1544783E-01  0.2072240E+03  0.7957747E-01  0.1150228E+00
       21   -1    0    0  504  503  0.00000000000E+00  0.00000000000E+00  0.19728851485E+03  0.19728851485E+03  0.00000000000E+00 0. -1.
       21   -1    0    0  501  504  0.00000000000E+00  0.00000000000E+00 -0.34752607191E+03  0.34752607191E+03  0.00000000000E+00 0.  1.
        6    2    1    2  501    0 -0.10861742356E+03 -0.20238686981E+02 -0.24308030558E+03  0.31774286014E+03  0.17223571364E+03 0.  0.
       24    2    3    3    0    0 -0.10941885377E+03 -0.61596119418E+02 -0.13165669592E+03  0.19879585388E+03  0.80123270339E+02 0.  0.
       -6    2    1    2    0  503  0.10861742356E+03  0.20238686981E+02  0.92842748528E+02  0.22707172662E+03  0.17531241805E+03 0.  0.
      -24    2    5    5    0    0  0.85690397078E+02 -0.25011116083E+02 -0.40946085002E+01  0.11756312235E+03  0.76393205451E+02 0.  0.
        5    1    3    3  501    0  0.80143020720E+00  0.41357432437E+02 -0.11142360966E+03  0.11894700626E+03  0.47000000000E+01 0. -1.
      -11    1    4    4    0    0  0.58484193562E+01 -0.25720391545E+02 -0.12558404095E+02  0.29213970350E+02  0.00000000000E+00 0.  1.
       12    1    4    4    0    0 -0.11526727313E+03 -0.35875727873E+02 -0.11909829183E+03  0.16958188353E+03  0.00000000000E+00 0. -1.
       -5    1    5    5    0  503  0.22927026487E+02  0.45249803064E+02  0.96937357029E+02  0.10950860427E+03  0.47000000000E+01 0.  1.
        3    1    6    6  502    0 -0.54814728180E+01 -0.24143976205E+02  0.69634149548E+01  0.25719006183E+02  0.00000000000E+00 0. -1.
       -4    1    6    6    0  502  0.91171869896E+02 -0.86713987840E+00 -0.11058023455E+02  0.91844116167E+02  0.00000000000E+00 0.  1.
</event>
<event>
12   0  0.1544783E-01  0.1906132E+03  0.7957747E-01  0.1163876E+00
       21   -1    0    0  504  503  0.00000000000E+00  0.00000000000E+00  0.76596546910E+03  0.76596546910E+03  0.00000000000E+00 0. -1.
       21   -1    0    0  501  504  0.00000000000E+00  0.00000000000E+00 -0.69996087576E+02  0.69996087576E+02  0.00000000000E+00 0. -1.
        6    2    1    2  501    0 -0.84905122855E+02  0.11911462369E+02  0.58550777825E+03  0.61575379671E+03  0.17024281760E+03 0.  0.
       24    2    3    3    0    0 -0.32918367422E+02 -0.49449676705E+02  0.42297099978E+03  0.43434788036E+03  0.78896926950E+02 0.  0.
       -6    2    1    2    0  503  0.84905122855E+02 -0.11911462369E+02  0.11046160327E+03  0.22020775997E+03  0.17011445832E+03 0.  0.
      -24    2    5    5    0    0  0.42228976700E+02  0.46615199980E+01 -0.94599816574E+01  0.91758572633E+02  0.80778265374E+02 0.  0.
        5    1    3    3  501    0 -0.51986755433E+02  0.61361139074E+02  0.16253677848E+03  0.18140591635E+03  0.47000000000E+01 0. -1.
        4    1    4    4  502    0 -0.55444576426E+02 -0.34251331025E+02  0.21649597823E+03  0.22609237785E+03  0.00000000000E+00 0. -1.
       -3    1    4    4    0  502  0.22526209004E+02 -0.15198345680E+02  0.20647502155E+03  0.20825550251E+03  0.00000000000E+00 0.  1.
       -5    1    5    5    0  503  0.42676146155E+02 -0.16572982367E+02  0.11992158493E+03  0.12844918733E+03  0.47000000000E+01 0.  1.
       11    1    6    6    0    0  0.57438325698E+02  0.26907740673E+02 -0.73488436323E+00  0.63432860743E+02  0.00000000000E+00 0. -1.
      -12    1    6    6    0    0 -0.15209348998E+02 -0.22246220675E+02 -0.87250972941E+01  0.28325711889E+02  0.00000000000E+00 0.  1.
</event>
<event>
12   0  0.1544783E-01  0.1878514E+03  0.7957747E-01  0.1166293E+00
        2   -1    0    0  502    0  0.00000000000E+00  0.00000000000E+00  0.60553729763E+02  0.60553729763E+02  0.00000000000E+00 0. -1.
       -2   -1    0    0    0  501  0.00000000000E+00  0.00000000000E+00 -0.62082240378E+03  0.62082240378E+03  0.00000000000E+00 0.  1.
        6    2    1    2  502    0 -0.72185929495E+02  0.73663482881E+01 -0.19674574996E+03  0.27249982590E+03  0.17401779645E+03 0.  0.
       24    2    3    3    0    0 -0.60133417851E+02 -0.25088118660E+02 -0.36978222894E+02  0.10895684021E+03  0.79112340507E+02 0.  0.
       -6    2    1    2    0  501  0.72185929495E+02 -0.73663482881E+01 -0.36352292406E+03  0.40887630765E+03  0.17252781554E+03 0.  0.
      -24    2    5    5    0    0  0.97549006453E-01  0.38697437074E+02 -0.11273581799E+03  0.14385768661E+03  0.80549166280E+02 0.  0.
        5    1    3    3  502    0 -0.12052511645E+02  0.32454466948E+02 -0.15976752706E+03  0.16354298568E+03  0.47000000000E+01 0. -1.
      -13    1    4    4    0    0  0.10752666523E+02 -0.17112724529E+02 -0.31483440554E+02  0.37412193297E+02  0.00000000000E+00 0.  1.
       14    1    4    4    0    0 -0.70886084374E+02 -0.79753941308E+01 -0.54947823401E+01  0.71544646916E+02  0.00000000000E+00 0. -1.
       -5    1    5    5    0  501  0.72088380489E+02 -0.46063785362E+02 -0.25078710607E+03  0.26501862103E+03  0.47000000000E+01 0.  1.
        1    1    6    6  503    0  0.36626189032E+02  0.25253398197E+02 -0.85401815973E+02  0.96294766291E+02  0.00000000000E+00 0. -1.
       -2    1    6    6    0  503 -0.36528640026E+02  0.13444038877E+02 -0.27334002015E+02  0.47562920323E+02  0.00000000000E+00 0.  1.
</event>
<event>
12   0  0.1544783E-01  0.3230347E+03  0.7957747E-01  0.1082761E+00
       21   -1    0    0  504  503  0.00000000000E+00  0.00000000000E+00  0.97226717825E+03  0.97226717825E+03  0.00000000000E+00 0. -1.
       21   -1    0    0  501  504  0.00000000000E+00  0.00000000000E+00 -0.10856400264E+03  0.10856400264E+03  0.00000000000E+00 0.  1.
        6    2    1    2  501    0  0.17848472579E+03 -0.20700319553E+03  0.36764949331E+03  0.48940529321E+03  0.17217511665E+03 0.  0.
       24    2    3    3    0    0  0.14701838005E+03 -0.82433372101E+02  0.16418670706E+03  0.24872507547E+03  0.80605356432E+02 0.  0.
       -6    2    1    2    0  503 -0.17848472579E+03  0.20700319553E+03  0.49605368230E+03  0.59142588768E+03  0.17031795148E+03 0.  0.
      -24    2    5    5    0    0 -0.81364134866E+02  0.32111327414E+02  0.23137720122E+03  0.25961976304E+03  0.78840042649E+02 0.  0.
        5    1    3    3  501    0  0.31466345747E+02 -0.12456982342E+03  0.20346278624E+03  0.24068021774E+03  0.47000000000E+01 0. -1.
        4    1    4    4  502    0  0.10216406749E+03 -0.75646580342E+02  0.15823196289E+03  0.20297107154E+03  0.00000000000E+00 0. -1.
       -3    1    4    4    0  502  0.44854312561E+02 -0.67867917591E+01  0.59547441742E+01  0.45754003933E+02  0.00000000000E+00 0.  1.
       -5    1    5    5    0  503 -0.97120590927E+02  0.17489186811E+03  0.26467648107E+03  0.33180612464E+03  0.47000000000E+01 0.  1.
       11    1    6    6    0    0 -0.89120964380E+02  0.45819870815E+02  0.21314120248E+03  0.23552320278E+03  0.00000000000E+00 0. -1.
      -12    1    6    6    0    0  0.77568295138E+01 -0.13708543400E+02  0.18235998747E+02  0.24096560264E+02  0.00000000000E+00 0.  1.
</event>
<event>
12   0  0.1544783E-01  0.1833974E+03  0.7957747E-01  0.1170290E+00
       21   -1    0    0  501  503  0.00000000000E+00  0.00000000000E+00  0.71718946305E+02  0.71718946305E+02  0.00000000000E+00 0. -1.
       21   -1    0    0  503  504  0.00000000000E+00  0.00000000000E+00 -0.49228337550E+03  0.49228337550E+03  0.00000000000E+00 0. -1.
        6    2    1    2  501    0 -0.48999634958E+02  0.29740818965E+02 -0.27821630874E+03  0.33184374720E+03  0.17155313336E+03 0.  0.
       24    2    3    3    0    0  0.21721503370E+02  0.42753057529E+01 -0.75865805991E+02  0.11593221964E+03  0.84820734988E+02 0.  0.
       -6    2    1    2    0  504  0.48999634958E+02 -0.29740818965E+02 -0.14234812045E+03  0.23215857461E+03  0.17421003366E+03 0.  0.
      -24    2    5    5    0    0 -0.33145608628E+02 -0.26399789403E+02 -0.30520530753E+02  0.93282718747E+02  0.77295423975E+02 0.  0.
        5    1    3    3  501    0 -0.70721138328E+02  0.25465513212E+02 -0.20235050275E+03  0.21591152756E+03  0.47000000000E+01 0. -1.
        4    1    4    4  502    0  0.32191179515E+02 -0.12866185938E+02 -0.86511884221E+02  0.93199339540E+02  0.00000000000E+00 0. -1.
       -3    1    4    4    0  502 -0.10469676144E+02  0.17141491691E+02  0.10646078230E+02  0.22732880100E+02  0.00000000000E+00 0.  1.
       -5    1    5    5    0  504  0.82145243586E+02 -0.33410295619E+01 -0.11182758970E+03  0.13887585586E+03  0.47000000000E+01 0.  1.
       13    1    6    6    0    0 -0.17486203432E+02  0.13419023984E+02  0.18096484276E+02  0.28518770280E+02  0.00000000000E+00 0. -1.
      -14    1    6    6    0    0 -0.15659405196E+02 -0.39818813387E+02 -0.48617015029E+02  0.64763948467E+02  0.00000000000E+00 0.  1.
</event>
<event>
12   0  0.1544783E-01  0.2647411E+03  0.7957747E-01  0.1111998E+00
       21   -1    0    0  504  503  0.00000000000E+00  0.00000000000E+00  0.24048907534E+03  0.24048907534E+03  0.00000000000E+00 0. -1.
       21   -1    0    0  501  504  0.00000000000E+00  0.00000000000E+00 -0.43673465444E+03  0.43673465444E+03  0.00000000000E+00 0.  1.
        6    2    1    2  501    0 -0.18818280760E+03 -0.54938400987E+02 -0.29603534832E+03  0.39714577060E+03  0.17792368776E+03 0.  0.
       24    2    3    3    0    0 -0.35847950304E+02  0.24771893381E+02 -0.86097932097E+02  0.12575039756E+03  0.80632414894E+02 0.  0.
       -6    2    1    2    0  503  0.18818280760E+03  0.54938400987E+02  0.99789769220E+02  0.28007795919E+03  0.17336282244E+03 0.  0.
      -24    2    5    5    0    0  0.10333094892E+03  0.18714043874E+02  0.12780480574E+03  0.18354312485E+03  0.79539360491E+02 0.  0.
        5    1    3    3  501    0 -0.15233485730E+03 -0.79710294368E+02 -0.20993741622E+03  0.27139537304E+03  0.47000000000E+01 0. -1.
        4    1    4    4  502    0 -0.48580292769E+01  0.31101686244E+02  0.25956932322E+01  0.31585644825E+02  0.00000000000E+00 0. -1.
       -3    1    4    4    0  502 -0.30989921027E+02 -0.63297928631E+01 -0.88693625329E+02  0.94164752732E+02  0.00000000000E+00 0.  1.
       -5    1    5    5    0  503  0.84851858681E+02  0.36224357113E+02 -0.28015036518E+02  0.96534834340E+02  0.47000000000E+01 0.  1.
       11    1    6    6    0    0 -0.13400400218E+02 -0.57476895508E+00  0.13616748141E+02  0.19113265428E+02  0.00000000000E+00 0. -1.
      -12    1    6    6    0    0  0.11673134914E+03  0.19288812829E+02  0.11418805760E+03  0.16442985943E+03  0.00000000000E+00 0.  1.
</event>
<event>
12   0  0.1544783E-01  0.1801791E+03  0.7957747E-01  0.1173256E+00
       -1   -1    0    0    0  501  0.00000000000E+00  0.00000000000E+00  0.33569826774E+02  0.33569826774E+02  0.00000000000E+00 0. -1.
        1   -1    0    0  502    0  0.00000000000E+00  0.00000000000E+00 -0.11133782692E+04  0.11133782692E+04  0.00000000000E+00 0.  1.
        6    2    1    2  502    0  0.26370768066E+02 -0.44980180271E+02 -0.33166669130E+03  0.37738349896E+03  0.17232781883E+03 0.  0.
       24    2    3    3    0    0 -0.19587318729E+02  0.27021658543E+01 -0.28359211657E+03  0.29541395212E+03  0.80336478442E+02 0.  0.
       -6    2    1    2    0  501 -0.26370768066E+02  0.44980180271E+02 -0.74814175115E+03  0.76956459705E+03  0.17261215247E+03 0.  0.
      -24    2    5    5    0    0 -0.10040442533E+02 -0.54096870414E+01 -0.67085317535E+03  0.67574864846E+03  0.80387672020E+02 0.  0.
        5    1    3    3  502    0  0.45958086796E+02 -0.47682346125E+02 -0.48074574728E+02  0.81969546840E+02  0.47000000000E+01 0. -1.
      -11    1    4    4    0    0 -0.71658098760E+01  0.17474853078E+02 -0.10439222600E+02  0.21580006714E+02  0.00000000000E+00 0.  1.
       12    1    4    4    0    0 -0.12421508853E+02 -0.14772687223E+02 -0.27315289397E+03  0.27383394540E+03  0.00000000000E+00 0. -1.
       -5    1    5    5    0  501 -0.16330325533E+02  0.50389867312E+02 -0.77288575801E+02  0.93815948586E+02  0.47000000000E+01 0.  1.
        3    1    6    6  503    0 -0.33910736503E+02 -0.28772136612E+02 -0.28455902738E+03  0.28801321838E+03  0.00000000000E+00 0. -1.
       -4    1    6    6    0  503  0.23870293970E+02  0.23362449570E+02 -0.38629414797E+03  0.38773543008E+03  0.00000000000E+00 0.  1.
</event>
<event>
12   0  0.1544783E-01  0.1891681E+03  0.7957747E-01  0.1165135E+00
       21   -1    0    0  501  503  0.00000000000E+00  0.00000000000E+00  0.51628415316E+03  0.51628415316E+03  0.00000000000E+00 0.  1.
       21   -1    0    0  503  504  0.00000000000E+00  0.00000000000E+00 -0.16246784915E+03  0.16246784915E+03  0.00000000000E+00 0.  1.
        6    2    1    2  501    0 -0.39230757578E+02 -0.47070135325E+02  0.43598971803E+03  0.47525950513E+03  0.17896902808E+03 0.  0.
       24    2    3    3    0    0 -0.83344524875E+02 -0.74672688325E+02  0.31331263832E+03  0.34191903385E+03  0.78876461415E+02 0.  0.
       -6    2    1    2    0  504  0.39230757578E+02  0.47070135325E+02 -0.82173414013E+02  0.20349249719E+03  0.17578986450E+03 0.  0.
      -24    2    5    5    0    0 -0.28539225287E+02 -0.25154593436E+01  0.15976322229E+01  0.84786221177E+02  0.79783055577E+02 0.  0.
        5    1    3    3  501    0  0.44113767297E+02  0.27602553000E+02  0.12267707970E+03  0.13334047128E+03  0.47000000000E+01 0. -1.
      -13    1    4    4    0    0 -0.32994274300E+02 -0.76465286396E+02  0.22932871064E+03  0.24398200689E+03  0.00000000000E+00 0.  1.
       14    1    4    4    0    0 -0.50350250575E+02  0.17925980709E+01  0.83983927680E+02  0.97937026957E+02  0.00000000000E+00 0. -1.
       -5    1    5    5    0  504  0.67769982865E+02  0.49585594669E+02 -0.83771046236E+02  0.11870627601E+03  0.47000000000E+01 0.  1.
        1    1    6    6  502    0  0.43027027751E+01  0.27109326185E+02  0.22851092796E+02  0.35715560465E+02  0.00000000000E+00 0. -1.
       -2    1    6    6    0  502 -0.32841928062E+02 -0.29624785528E+02 -0.21253460573E+02  0.49070660712E+02  0.00000000000E+00 0.  1.
</event>
<event>
12   0  0.1544783E-01  0.1793681E+03  0.7957747E-01  0.1174014E+00
       -1   -1    0    0    0  501  0.00000000000E+00  0.00000000000E+00  0.19030107118E+03  0.19030107118E+03  0.00000000000E+00 0. -1.
        1   -1    0    0  502    0  0.00000000000E+00  0.00000000000E+00 -0.79043289541E+03  0.79043289541E+03  0.00000000000E+00 0.  1.
        6    2    1    2  502    0  0.45090613456E+02  0.67225305829E+01  0.13503937701E+03  0.22377543259E+03  0.17251508643E+03 0.  0.
       24    2    3    3    0    0  0.73310192778E+02  0.43185627478E+02  0.13530219477E+03  0.17742825182E+03  0.77037119931E+02 0.  0.
       -6    2    1    2    0  501 -0.45090613456E+02 -0.67225305829E+01 -0.73517120124E+03  0.75695853401E+03  0.17444532450E+03 0.  0.
      -24    2    5    5    0    0 -0.49045662836E+02  0.17705022703E+02 -0.20467844065E+03  0.22586813981E+03  0.80026293440E+02 0.  0.
        5    1    3    3  502    0 -0.28219579321E+02 -0.36463096895E+02 -0.26281776095E+00  0.46347180771E+02  0.47000000000E+01 0. -1.
        4    1    4    4  503    0  0.87265920481E+02  0.24581026054E+02  0.11585347765E+03  0.14711082898E+03  0.00000000000E+00 0. -1.
       -3    1    4    4    0  503 -0.13955727703E+02  0.18604601423E+02  0.19448717117E+02  0.30317422835E+02  0.00000000000E+00 0.  1.
       -5    1    5    5    0  501  0.39550493800E+01 -0.24427553286E+02 -0.53049276059E+03  0.53109039420E+03  0.47000000000E+01 0.  1.
       13    1    6    6    0    0 -0.59568681471E+02  0.25034998698E+02 -0.20287640364E+03  0.21291785770E+03  0.00000000000E+00 0. -1.
      -14    1    6    6    0    0  0.10523018635E+02 -0.73299759955E+01 -0.18020370043E+01  0.12950282107E+02  0.00000000000E+00 0.  1.
</event>
<event>
12   0  0.1544783E-01  0.1859597E+03  0.7957747E-01  0.1167976E+00
       21   -1    0    0  501  503  0.00000000000E+00  0.00000000000E+00  0.15819303112E+03  0.15819303112E+03  0.00000000000E+00 0. -1.
       21   -1    0    0  503  504  0.00000000000E+00  0.00000000000E+00 -0.21727347968E+03  0.21727347968E+03  0.00000000000E+00 0. -1.
        6    2    1    2  501    0  0.44335129477E+02  0.49381499002E+02 -0.35854080853E+02  0.18938459015E+03  0.17371491508E+03 0.  0.
       24    2    3    3    0    0  0.70324988683E+02 -0.66934480303E+01 -0.59958968214E+02  0.12287889068E+03  0.80707729659E+02 0.  0.
       -6    2    1    2    0  504 -0.44335129477E+02 -0.49381499002E+02 -0.23226367707E+02  0.18608192065E+03  0.17228720465E+03 0.  0.
      -24    2    5    5    0    0 -0.80713040313E+02 -0.58622689120E+02  0.18463905136E+02  0.12978875196E+03  0.80950539137E+02 0.  0.
        5    1    3    3  501    0 -0.25989859205E+02  0.56074947033E+02  0.24104887362E+02  0.66505699462E+02  0.47000000000E+01 0. -1.
      -11    1    4    4    0    0  0.36212031511E+02  0.20457109655E+02 -0.66856934188E+02  0.78737882945E+02  0.00000000000E+00 0.  1.
       12    1    4    4    0    0  0.34112957172E+02 -0.27150557685E+02  0.68979659740E+01  0.44141007739E+02  0.00000000000E+00 0. -1.
       -5    1    5    5    0  504  0.36377910836E+02  0.92411901179E+01 -0.41690272843E+02  0.56293168691E+02  0.47000000000E+01 0.  1.
        3    1    6    6  502    0 -0.41024446572E+02 -0.53869915964E+02 -0.23651556688E+02  0.71724258074E+02  0.00000000000E+00 0. -1.
       -4    1    6    6    0  502 -0.39688593740E+02 -0.47527731567E+01  0.42115461824E+02  0.58064493887E+02  0.00000000000E+00 0.  1.
</event>
<event>
12   0  0.1544783E-01  0.1756675E+03  0.7957747E-01  0.1177531E+00
       21   -1    0    0  504  503  0.00000000000E+00  0.00000000000E+00  0.16104326830E+03  0.16104326830E+03  0.00000000000E+00 0. -1.
       21   -1    0    0  501  504  0.00000000000E+00  0.00000000000E+00 -0.24810146997E+03  0.24810146997E+03  0.00000000000E+00 0. -1.
        6    2    1    2  501    0  0.16246445024E+02 -0.22056594325E+02 -0.14159194015E+03  0.22520720758E+03  0.17297273919E+03 0.  0.
       24    2    3    3    0    0 -0.69893809368E+01  0.41162872006E+02 -0.33705373861E+02  0.97935035777E+02  0.81926708269E+02 0.  0.
       -6    2    1    2    0  503 -0.16246445024E+02  0.22056594325E+02  0.54533738473E+02  0.18393753069E+03  0.17351843198E+03 0.  0.
      -24    2    5    5    0    0 -0.12279024999E+02  0.49858027805E+02 -0.25787321209E+02  0.98718854606E+02  0.80273463412E+02 0.  0.
        5    1    3    3  501    0  0.23235825960E+02 -0.63219466331E+02 -0.10788656629E+03  0.12727217181E+03  0.47000000000E+01 0. -1.
        4    1    4    4  502    0  0.32193414875E+02  0.33176302834E+02 -0.94123969688E+00  0.46238176469E+02  0.00000000000E+00 0. -1.
       -3    1    4    4    0  502 -0.39182795812E+02  0.79865691725E+01 -0.32764134164E+02  0.51696859308E+02  0.00000000000E+00 0.  1.
       -5    1    5    5    0  503 -0.39674200250E+01 -0.27801433480E+02  0.80321059682E+02  0.85218676085E+02  0.47000000000E+01 0.  1.
       11    1    6    6    0    0 -0.34162661505E+02  0.61571283878E+02 -0.17570945122E+02  0.72573056654E+02  0.00000000000E+00 0. -1.
      -12    1    6    6    0    0  0.21883636507E+02 -0.11713256073E+02 -0.82163760865E+01  0.26145797953E+02  0.00000000000E+00 0.  1.
</event>
<event>
12   0  0.1544783E-01  0.2055105E+03  0.7957747E-01  0.1151570E+00
       -2   -1    0    0    0  501  0.00000000000E+00  0.00000000000E+00  0.27839659347E+03  0.27839659347E+03  0.00000000000E+00 0.  1.
        2   -1    0    0  502    0  0.00000000000E+00  0.00000000000E+00 -0.23058859569E+03  0.23058859569E+03  0.00000000000E+00 0. -1.
        6    2    1    2  502    0  0.10391906933E+03 -0.36590741780E+02  0.17276315300E+03  0.26858419372E+03  0.17364419578E+03 0.  0.
       24    2    3    3    0    0  0.33510067323E+01  0.30886562533E+02  0.64509548302E+02  0.10607864076E+03  0.78268686031E+02 0.  0.
       -6    2    1    2    0  501 -0.10391906933E+03  0.36590741780E+02 -0.12495515523E+03  0.24040099544E+03  0.17332279837E+03 0.  0.
      -24    2    5    5    0    0 -0.12537521488E+03  0.68916721773E+02 -0.85499470313E+02  0.18486563520E+03  0.79979276110E+02 0.  0.
        5    1    3    3  502    0  0.10056806259E+03 -0.67477304313E+02  0.10825360470E+03  0.16250555296E+03  0.47000000000E+01 0. -1.
        2    1    4    4  503    0 -0.17090396694E+02  0.31356261127E+02 -0.27140242801E+01  0.35814280655E+02  0.00000000000E+00 0. -1.
       -1    1    4    4    0  503  0.20441403427E+02 -0.46969859428E+00  0.67223572582E+02  0.70264360109E+02  0.00000000000E+00 0.  1.
       -5    1    5    5    0  501  0.21456145557E+02 -0.32325979993E+02 -0.39455684915E+02  0.55535360238E+02  0.47000000000E+01 0.  1.
       13    1    6    6    0    0 -0.82605404402E+02  0.75031981840E+02 -0.87205548401E+02  0.14162718244E+03  0.00000000000E+00 0. -1.
      -14    1    6    6    0    0 -0.42769810480E+02 -0.61152600662E+01  0.17060780880E+01  0.43238452755E+02  0.00000000000E+00 0.  1.
</event>
<event>
12   0  0.1544783E-01  0.2453516E+03  0.7957747E-01  0.1123594E+00
       21   -1    0    0  501  503  0.00000000000E+00  0.00000000000E+00  0.17606003924E+03  0.17606003924E+03  0.00000000000E+00 0. -1.
       21   -1    0    0  503  504  0.00000000000E+00  0.00000000000E+00 -0.39012405632E+03  0.39012405632E+03  0.00000000000E+00 0. -1.
        6    2    1    2  501    0  0.16204320633E+03  0.59862473109E+02 -0.68078541379E+01  0.24544607957E+03  0.17422948858E+03 0.  0.
       24    2    3    3    0    0  0.32250057359E+02 -0.21979094718E+02  0.13648533442E+02  0.90575625516E+02  0.80588551719E+02 0.  0.
       -6    2    1    2    0  504 -0.16204320633E+03 -0.59862473109E+02 -0.20725616294E+03  0.32073801599E+03  0.17342503112E+03 0.  0.
      -24    2    5    5    0    0 -0.74475276082E+02 -0.99140802944E+02 -0.11497967355E+03  0.18751650835E+03  0.81034869157E+02 0.  0.
        5    1    3    3  501    0  0.12979314898E+03  0.81841567826E+02 -0.20456387580E+02  0.15487045405E+03  0.47000000000E+01 0. -1.
      -13    1    4    4    0    0 -0.19199884797E+02 -0.21475007270E+02  0.24704284867E+02  0.37948823489E+02  0.00000000000E+00 0.  1.
       14    1    4    4    0    0  0.51449942155E+02 -0.50408744721E+00 -0.11055751425E+02  0.52626802026E+02  0.00000000000E+00 0. -1.
       -5    1    5    5    0  504 -0.87567930253E+02  0.39278329836E+02 -0.92276489392E+02  0.13322150764E+03  0.47000000000E+01 0.  1.
        3    1    6    6  502    0 -0.88902873553E+02 -0.66581599909E+02 -0.97731471026E+02  0.14794685127E+03  0.00000000000E+00 0. -1.
       -4    1    6    6    0  502  0.14427597472E+02 -0.32559203036E+02 -0.17248202521E+02  0.39569657079E+02  0.00000000000E+00 0.  1.
</event>
<event>
12   0  0.1544783E-01  0.3162120E+03  0.7957747E-01  0.1085824E+00
       -2   -1    0    0    0  501  0.00000000000E+00  0.00000000000E+00  0.76861213715E+02  0.76861213715E+02  0.00000000000E+00 0.  1.
        2   -1    0    0  502    0  0.00000000000E+00  0.00000000000E+00 -0.14246478451E+04  0.14246478451E+04  0.00000000000E+00 0. -1.
        6    2    1    2  502    0 -0.68995002691E+02  0.25530001350E+03 -0.45317297426E+03  0.55274578395E+03  0.17384979088E+03 0.  0.
       24    2    3    3    0    0 -0.49127565567E+02  0.18164506684E+03 -0.19248008381E+03  0.28107937205E+03  0.80923313840E+02 0.  0.
       -6    2    1    2    0  501  0.68995002691E+02 -0.25530001350E+03 -0.89461365714E+03  0.94876327488E+03  0.17285759726E+03 0.  0.
      -24    2    5    5    0    0  0.93777070621E+02 -0.26205007640E+03 -0.80473941718E+03  0.85517276655E+03  0.79060417242E+02 0.  0.
        5    1    3    3  502    0 -0.19867437124E+02  0.73654946660E+02 -0.26069289045E+03  0.27166641190E+03  0.47000000000E+01 0. -1.
        2    1    4    4  503    0  0.22426496543E+02  0.54497495963E+02 -0.54611896206E+02  0.80345404477E+02  0.00000000000E+00 0. -1.
       -1    1    4    4    0  503 -0.71554062110E+02  0.12714757087E+03 -0.13786818760E+03  0.20073396757E+03  0.00000000000E+00 0.  1.
       -5    1    5    5    0  501 -0.24782067930E+02  0.67500629068E+01 -0.89874239962E+02  0.93590508327E+02  0.47000000000E+01 0.  1.
       13    1    6    6    0    0  0.49897688143E+02 -0.20686923231E+03 -0.52050818946E+03  0.56232858175E+03  0.00000000000E+00 0. -1.
      -14    1    6    6    0    0  0.43879382478E+02 -0.55180844090E+02 -0.28423122771E+03  0.29284418480E+03  0.00000000000E+00 0.  1.
</event>
<event>
12   0  0.1544783E-01  0.1974527E+03  0.7957747E-01  0.1158078E+00
       21   -1    0    0  501  503  0.00000000000E+00  0.00000000000E+00  0.26600676437E+03  0.26600676437E+03  0.00000000000E+00 0. -1.
       21   -1    0    0  503  504  0.00000000000E+00  0.00000000000E+00 -0.26714891805E+03  0.26714891805E+03  0.00000000000E+00 0. -1.
        6    2    1    2  501    0  0.32798112596E+02 -0.88503745645E+02  0.17907507455E+03  0.26582479422E+03  0.17229715527E+03 0.  0.
       24    2    3    3    0    0  0.40833608247E+02 -0.17830074900E+02  0.24217665604E+02  0.95348273746E+02  0.80743438405E+02 0.  0.
       -6    2    1    2    0  504 -0.32798112596E+02  0.88503745645E+02 -0.18021722823E+03  0.26733088820E+03  0.17343276868E+03 0.  0.
      -24    2    5    5    0    0 -0.73489636841E+02  0.75928054400E+02 -0.72287707883E+02  0.15120673258E+03  0.80449779985E+02 0.  0.
        5    1    3    3  501    0 -0.80354956514E+01 -0.70673670744E+02  0.15485740895E+03  0.17047652048E+03  0.47000000000E+01 0. -1.
      -13    1    4    4    0    0 -0.21649375607E+02 -0.19245659110E+02  0.20695045041E+01  0.29040897156E+02  0.00000000000E+00 0.  1.
       14    1    4    4    0    0  0.62482983854E+02  0.14155842096E+01  0.22148161100E+02  0.66307376589E+02  0.00000000000E+00 0. -1.
       -5    1    5    5    0  504  0.40691524245E+02  0.12575691244E+02 -0.10792952035E+03  0.11612415562E+03  0.47000000000E+01 0.  1.
        3    1    6    6  502    0 -0.35989136536E+02  0.11463103223E+02 -0.66406047850E+02  0.76396229457E+02  0.00000000000E+00 0. -1.
       -4    1    6    6    0  502 -0.37500500305E+02  0.64464951177E+02 -0.58816600328E+01  0.74810503127E+02  0.00000000000E+00 0.  1.
</event>
<event>
12   0  0.1544783E-01  0.1966914E+03  0.7957747E-01  0.1158711E+00
       21   -1    0    0  504  503  0.00000000000E+00  0.00000000000E+00  0.19218463239E+03  0.19218463239E+03  0.00000000000E+00 0. -1.
       21   -1    0    0  501  504  0.00000000000E+00  0.00000000000E+00 -0.22068306944E+03  0.22068306944E+03  0.00000000000E+00 0. -1.
        6    2    1    2  501    0  0.46916503267E+02 -0.77680740780E+02 -0.77084599583E+02  0.21125703260E+03  0.17450513621E+03 0.  0.
       24    2    3    3    0    0  0.23879765981E+02 -0.72664261331E+02 -0.11911565332E+03  0.16283641913E+03  0.80478707936E+02 0.  0.
       -6    2    1    2    0  503 -0.46916503267E+02  0.77680740780E+02  0.48586162533E+02  0.20161066923E+03  0.17335163971E+03 0.  0.
      -24    2    5    5    0    0  0.18772881752E+02 -0.11977510399E+02  0.30564990240E+02  0.88913952505E+02  0.80471053660E+02 0.  0.
        5    1    3    3  501    0  0.23036737286E+02 -0.50164794495E+01  0.42031053736E+02  0.48420613472E+02  0.47000000000E+01 0. -1.
      -11    1    4    4    0    0  0.23915325557E+02  0.96715857403E+01 -0.14123133762E+02  0.29409951964E+02  0.00000000000E+00 0.  1.
       12    1    4    4    0    0 -0.35559576033E-01 -0.82335847071E+02 -0.10499251956E+03  0.13342646716E+03  0.00000000000E+00 0. -1.
       -5    1    5    5    0  503 -0.65689385019E+02  0.89658251179E+02  0.18021172293E+02  0.11269671672E+03  0.47000000000E+01 0.  1.
        1    1    6    6  502    0  0.43039914321E+02  0.14926033408E+02  0.80595295649E+01  0.46262043998E+02  0.00000000000E+00 0. -1.
       -2    1    6    6    0  502 -0.24267032569E+02 -0.26903543807E+02  0.22505460675E+02  0.42651908507E+02  0.00000000000E+00 0.  1.
</event>
<event>
12   0  0.1544783E-01  0.3325046E+03  0.7957747E-01  0.1078644E+00
       -2   -1    0    0    0  501  0.00000000000E+00  0.00000000000E+00  0.31620722909E+03  0.31620722909E+03  0.00000000000E+00 0. -1.
        2   -1    0    0  502    0  0.00000000000E+00  0.00000000000E+00 -0.36919340413E+03  0.36919340413E+03  0.00000000000E+00 0.  1.
        6    2    1    2  502    0 -0.75242259111E+02 -0.27590723983E+03  0.52486488581E+02  0.33481212621E+03  0.16600640296E+03 0.  0.
       24    2    3    3    0    0 -0.99251889234E+02 -0.23788119174E+03  0.63690954801E+01  0.27022616319E+03  0.80890141526E+02 0.  0.
       -6    2    1    2    0  501  0.75242259111E+02  0.27590723983E+03 -0.10547266362E+03  0.35058850701E+03  0.17320974547E+03 0.  0.
      -24    2    5    5    0    0 -0.61890378136E+01  0.16509434151E+03 -0.10955060981E+03  0.21293214429E+03  0.77745200318E+02 0.  0.
        5    1    3    3  502    0  0.24009630123E+02 -0.38026048092E+02  0.46117393101E+02  0.64585963015E+02  0.47000000000E+01 0. -1.
      -11    1    4    4    0    0 -0.13393220173E+02 -0.67422521356E+02 -0.31550794093E+02  0.75634828885E+02  0.00000000000E+00 0.  1.
       12    1    4    4    0    0 -0.85858669061E+02 -0.17045867038E+03  0.37919889573E+02  0.19459133431E+03  0.00000000000E+00 0. -1.
       -5    1    5    5    0  501  0.81431296925E+02  0.11081289832E+03  0.40779461849E+01  0.13765636272E+03  0.47000000000E+01 0.  1.
        3    1    6    6  503    0  0.18681526564E+02  0.10960606277E+03 -0.34659410329E+02  0.11646357008E+03  0.00000000000E+00 0. -1.
       -4    1    6    6    0  503 -0.24870564377E+02  0.55488278738E+02 -0.74891199481E+02  0.96468574207E+02  0.00000000000E+00 0.  1.
</event>
<event>
12   0  0.1544783E-01  0.2258462E+03  0.7957747E-01  0.1136501E+00
       21   -1    0    0  501  503  0.00000000000E+00  0.00000000000E+00  0.21918836006E+03  0.21918836006E+03  0.00000000000E+00 0. -1.
       21   -1    0    0  503  504  0.00000000000E+00  0.00000000000E+00 -0.76239514558E+03  0.76239514558E+03  0.00000000000E+00 0.  1.
        6    2    1    2  501    0 -0.13962181923E+03 -0.42739537777E+02  0.13823239261E+03  0.26479176717E+03  0.17229499441E+03 0.  0.
       24    2    3    3    0    0 -0.14038698817E+03 -0.70598570949E+02  0.69109084806E+02  0.19011357160E+03  0.81697244957E+02 0.  0.
       -6    2    1    2    0  504  0.13962181923E+03  0.42739537777E+02 -0.68143917814E+03  0.71679173847E+03  0.16766073583E+03 0.  0.
      -24    2    5    5    0    0  0.26145717591E+02  0.88939548419E+01 -0.43685573625E+03  0.44500965817E+03  0.80174563193E+02 0.  0.
        5    1    3    3  501    0  0.76516893914E+00  0.27859033172E+02  0.69123307806E+02  0.74678195578E+02  0.47000000000E+01 0. -1.
        2    1    4    4  502    0 -0.79623181957E+02 -0.83035390137E+02  0.42925387152E+02  0.12278972262E+03  0.00000000000E+00 0. -1.
       -1    1    4    4    0  502 -0.60763806216E+02  0.12436819188E+02  0.26183697654E+02  0.67323848970E+02  0.00000000000E+00 0.  1.
       -5    1    5    5    0  504  0.11347610164E+03  0.33845582936E+02 -0.24458344188E+03  0.27178208030E+03  0.47000000000E+01 0.  1.
       13    1    6    6    0    0  0.34419455044E+01 -0.34360304422E+02 -0.14226679883E+03  0.14639781268E+03  0.00000000000E+00 0. -1.
      -14    1    6    6    0    0  0.22703772087E+02  0.43254259264E+02 -0.29458893742E+03  0.29861184548E+03  0.00000000000E+00 0.  1.
</event>
<event>
12   0  0.1544783E-01  0.1905682E+03  0.7957747E-01  0.1163915E+00
       -2   -1    0    0    0  501  0.00000000000E+00  0.00000000000E+00  0.39607308394E+03  0.39607308394E+03  0.00000000000E+00 0.  1.
        2   -1    0    0  502    0  0.00000000000E+00  0.00000000000E+00 -0.95592473629E+02  0.95592473629E+02  0.00000000000E+00 0. -1.
        6    2    1    2  502    0 -0.88806425837E+02  0.46165884460E+02  0.95197073152E+02  0.20532056824E+03  0.15190846866E+03 0.  0.
       24    2    3    3    0    0 -0.31578639083E+02  0.41624351372E+02  0.10692456491E+03  0.14653903065E+03  0.85504548700E+02 0.  0.
       -6    2    1    2    0  501  0.88806425837E+02 -0.46165884460E+02  0.20528353716E+03  0.28634498933E+03  0.17272594514E+03 0.  0.
      -24    2    5    5    0    0  0.25564725228E+02 -0.97787002176E+02  0.12971953794E+03  0.17500649433E+03  0.59868702700E+02 0.  0.
        5    1    3    3  502    0 -0.57227786754E+02  0.45415330874E+01 -0.11727491756E+02  0.58781537598E+02  0.47000000000E+01 0. -1.
        4    1    4    4  503    0 -0.31766093249E+02  0.62818023386E+02  0.51559333598E+02  0.87255679606E+02  0.00000000000E+00 0. -1.
       -3    1    4    4    0  503  0.18745416552E+00 -0.21193672014E+02  0.55365231310E+02  0.59283351040E+02  0.00000000000E+00 0.  1.
       -5    1    5    5    0  501  0.63241700610E+02  0.51621117717E+02  0.75563999216E+02  0.11133849500E+03  0.47000000000E+01 0.  1.
       11    1    6    6    0    0 -0.13616614588E+02 -0.33232467618E+02  0.18033613614E+02  0.40187315372E+02  0.00000000000E+00 0. -1.
      -12    1    6    6    0    0  0.39181339815E+02 -0.64554534559E+02  0.11168592433E+03  0.13481917896E+03  0.00000000000E+00 0.  1.
</event>
<event>
12   0  0.1544783E-01  0.1825861E+03  0.7957747E-01  0.1171031E+00
       21   -1    0    0  501  503  0.00000000000E+00  0.00000000000E+00  0.18288343239E+03  0.18288343239E+03  0.00000000000E+00 0. -1.
       21   -1    0    0  503  504  0.00000000000E+00  0.00000000000E+00 -0.21910060361E+03  0.21910060361E+03  0.00000000000E+00 0. -1.
        6    2    1    2  501    0  0.19028340183E+02  0.56503698408E+02 -0.10081344304E+03  0.20856905212E+03  0.17257738422E+03 0.  0.
       24    2    3    3    0    0  0.25617746644E+02  0.94641930160E+02 -0.34232130842E+02  0.13141267758E+03  0.80523842184E+02 0.  0.
       -6    2    1    2    0  504 -0.19028340183E+02 -0.56503698408E+02  0.64596271816E+02  0.19341498388E+03  0.17228445082E+03 0.  0.
      -24    2    5    5    0    0 -0.29408605118E+02 -0.16837144045E+02  0.10519078469E+03  0.13552552102E+03  0.78445587448E+02 0.  0.
        5    1    3    3  501    0 -0.65894064606E+01 -0.38138231752E+02 -0.66581312194E+02  0.77156374540E+02  0.47000000000E+01 0. -1.
      -13    1    4    4    0    0 -0.10163098267E+02  0.60443850993E+01  0.18741986123E+02  0.22160442267E+02  0.00000000000E+00 0.  1.
       14    1    4    4    0    0  0.35780844911E+02  0.88597545061E+02 -0.52974116965E+02  0.10925223532E+03  0.00000000000E+00 0. -1.
       -5    1    5    5    0  504  0.10380264935E+02 -0.39666554363E+02 -0.40594512873E+02  0.57889462863E+02  0.47000000000E+01 0.  1.
        1    1    6    6  502    0  0.29977703269E+01  0.24699569462E+02  0.63952843394E+02  0.68622310780E+02  0.00000000000E+00 0. -1.
       -2    1    6    6    0  502 -0.32406375445E+02 -0.41536713507E+02  0.41237941295E+02  0.66903210242E+02  0.00000000000E+00 0.  1.
</event>
<event>
12   0  0.1544783E-01  0.1798746E+03  0.7957747E-01  0.1173540E+00
       21   -1    0    0  501  503  0.00000000000E+00  0.00000000000E+00  0.43251915627E+03  0.43251915627E+03  0.00000000000E+00 0. -1.
       21   -1    0    0  503  504  0.00000000000E+00  0.00000000000E+00 -0.75017305688E+02  0.75017305688E+02  0.00000000000E+00 0. -1.
        6    2    1    2  501    0  0.42259778410E+02  0.36308305377E+02  0.15424682108E+03  0.23695350972E+03  0.17102836619E+03 0.  0.
       24    2    3    3    0    0  0.53883046284E+02 -0.28512504368E+02  0.52422314328E+02  0.11559800754E+03  0.83056936652E+02 0.  0.
       -6    2    1    2    0  504 -0.42259778410E+02 -0.36308305377E+02  0.20325502950E+03  0.27058295224E+03  0.16970075167E+03 0.  0.
      -24    2    5    5    0    0 -0.21312210222E+00 -0.84910225342E+02  0.12700467826E+03  0.17075172468E+03  0.76263827565E+02 0.  0.
        5    1    3    3  501    0 -0.11623267874E+02  0.64820809745E+02  0.10182450675E+03  0.12135550217E+03  0.47000000000E+01 0. -1.
        2    1    4    4  502    0  0.34212788134E+02 -0.19228474951E+02 -0.17057850902E+02  0.42792749365E+02  0.00000000000E+00 0. -1.
       -1    1    4    4    0  502  0.19670258150E+02 -0.92840294169E+01  0.69480165230E+02  0.72805258177E+02  0.00000000000E+00 0.  1.
       -5    1    5    5    0  504 -0.42046656308E+02  0.48601919965E+02  0.76250351241E+02  0.99831227556E+02  0.47000000000E+01 0.  1.
       13    1    6    6    0    0 -0.29675452170E+02 -0.70551983801E+02  0.10949175702E+03  0.13359139095E+03  0.00000000000E+00 0. -1.
      -14    1    6    6    0    0  0.29462330068E+02 -0.14358241542E+02  0.17512921233E+02  0.37160333735E+02  0.00000000000E+00 0.  1.
</event>
<event>
12   0  0.1544783E-01  0.1879606E+03  0.7957747E-01  0.1166197E+00
       21   -1    0    0  504  503  0.00000000000E+00  0.00000000000E+00  0.11696605255E+03  0.11696605255E+03  0.00000000000E+00 0.  1.
       21   -1    0    0  501  504  0.00000000000E+00  0.00000000000E+00 -0.47935382862E+03  0.47935382862E+03  0.00000000000E+00 0. -1.
        6    2    1    2  501    0 -0.72285299649E+01  0.72695036754E+02 -0.36294438728E+03  0.40835848694E+03  0.17231136232E+03 0.  0.
       24    2    3    3    0    0  0.58428845581E+02  0.44176476736E+02 -0.14868871618E+03  0.18241207333E+03  0.76159957208E+02 0.  0.
       -6    2    1    2    0  503  0.72285299649E+01 -0.72695036754E+02  0.55661120499E+00  0.18796139422E+03  0.17318301270E+03 0.  0.
      -24    2    5    5    0    0 -0.34890950609E+02  0.15523739212E+02  0.12270672644E+02  0.89392066782E+02  0.79887466369E+02 0.  0.
        5    1    3    3  501    0 -0.65657375545E+02  0.28518560018E+02 -0.21425567109E+03  0.22594641361E+03  0.47000000000E+01 0. -1.
        4    1    4    4  502    0  0.63586083283E+02  0.40360616853E+01 -0.10532725822E+03  0.12309878596E+03  0.00000000000E+00 0. -1.
       -3    1    4    4    0  502 -0.51572377025E+01  0.40140415050E+02 -0.43361457966E+02  0.59313287366E+02  0.00000000000E+00 0.  1.
       -5    1    5    5    0  503  0.42119480574E+02 -0.88218775966E+02 -0.11714061439E+02  0.98569327441E+02  0.47000000000E+01 0.  1.
       13    1    6    6    0    0  0.20006763958E+02  0.78604967185E+01 -0.16351985326E+02  0.27008247570E+02  0.00000000000E+00 0. -1.
      -14    1    6    6    0    0 -0.54897714567E+02  0.76632424938E+01  0.28622657970E+02  0.62383819212E+02  0.00000000000E+00 0.  1.
</event>
<event>
12   0  0.1544783E-01  0.2272332E+03  0.7957747E-01  0.1135537E+00
       21   -1    0    0  504  503  0.00000000000E+00  0.00000000000E+00  0.38259950911E+03  0.38259950911E+03  0.00000000000E+00 0. -1.
       21   -1    0    0  501  504  0.00000000000E+00  0.00000000000E+00 -0.13545212485E+03  0.13545212485E+03  0.00000000000E+00 0. -1.
        6    2    1    2  501    0 -0.35948240100E+02  0.14225783727E+03  0.15572485451E+03  0.27547263703E+03  0.17350900613E+03 0.  0.
       24    2    3    3    0    0 -0.56000913507E+02  0.29961110010E+02  0.33337506388E+02  0.10810054364E+03  0.80873776820E+02 0.  0.
       -6    2    1    2    0  503  0.35948240100E+02 -0.14225783727E+03  0.91422529755E+02  0.24257899693E+03  0.17016733698E+03 0.  0.
      -24    2    5    5    0    0 -0.31749951801E+01 -0.10807144461E+03 -0.27239808734E+01  0.13494539416E+03  0.80705152239E+02 0.  0.
        5    1    3    3  501    0  0.20052673408E+02  0.11229672726E+03  0.12238734812E+03  0.16737209339E+03  0.47000000000E+01 0. -1.
        2    1    4    4  502    0 -0.69197309503E+02  0.89557476331E+01  0.42450185965E+02  0.81673076020E+02  0.00000000000E+00 0. -1.
       -1    1    4    4    0  502  0.13196395996E+02  0.21005362377E+02 -0.91126795776E+01  0.26427467623E+02  0.00000000000E+00 0.  1.
       -5    1    5    5    0  503  0.39123235280E+02 -0.34186392658E+02  0.94146510629E+02  0.10763360277E+03  0.47000000000E+01 0.  1.
       11    1    6    6    0    0  0.24788195025E+02 -0.15839072728E+02 -0.21905829217E+02  0.36676916326E+02  0.00000000000E+00 0. -1.
      -12    1    6    6    0    0 -0.27963190205E+02 -0.92232371884E+02  0.19181848344E+02  0.98268477833E+02  0.00000000000E+00 0.  1.
</event>
<event>
12   0  0.1544783E-01  0.1908996E+03  0.7957747E-01  0.1163628E+00
       21   -1    0    0  504  503  0.00000000000E+00  0.00000000000E+00  0.47501561370E+03  0.47501561370E+03  0.00000000000E+00 0. -1.
       21   -1    0    0  501  504  0.00000000000E+00  0.00000000000E+00 -0.77623209587E+02  0.77623209587E+02  0.00000000000E+00 0. -1.
        6    2    1    2  501    0  0.56572703946E+02 -0.56446773489E+02  0.16382088549E+03  0.25097956880E+03  0.17253043895E+03 0.  0.
       24    2    3    3    0    0  0.41487940942E+02  0.12694079322E+01  0.15688342262E+02  0.91217094999E+02  0.79696760894E+02 0.  0.
       -6    2    1    2    0  503 -0.56572703946E+02  0.56446773489E+02  0.23357151863E+03  0.30165925449E+03  0.17336649744E+03 0.  0.
      -24    2    5    5    0    0 -0.22919245517E+02  0.11737034310E+01  0.22024667862E+03  0.23542249053E+03  0.79927968899E+02 0.  0.
        5    1    3    3  501    0  0.15084763004E+02 -0.57716181422E+02  0.14813254322E+03  0.15976247380E+03  0.47000000000E+01 0. -1.
      -11    1    4    4    0    0  0.39918240853E+02  0.36371622009E+02  0.38551492640E+01  0.54140770370E+02  0.00000000000E+00 0.  1.
       12    1    4    4    0    0  0.15697000893E+01 -0.35102214077E+02  0.11833192998E+02  0.37076324629E+02  0.00000000000E+00 0. -1.
       -5    1    5    5    0  503 -0.33653458429E+02  0.55273070058E+02  0.13324840010E+02  0.66236763955E+02  0.47000000000E+01 0.  1.
        1    1    6    6  502    0  0.25111510350E+02 -0.82107726365E+01  0.13100830905E+03  0.13364573237E+03  0.00000000000E+00 0. -1.
       -2    1    6    6    0  502 -0.48030755866E+02  0.93844760675E+01  0.89238369564E+02  0.10177675817E+03  0.00000000000E+00 0.  1.
</event>
<event>
12   0  0.1544783E-01  0.1802961E+03  0.7957747E-01  0.1173147E+00
       -2   -1    0    0    0  501  0.00000000000E+00  0.00000000000E+00  0.75065907695E+02  0.75065907695E+02  0.00000000000E+00 0.  1.
        2   -1    0    0  502    0  0.00000000000E+00  0.00000000000E+00 -0.93815045383E+03  0.93815045383E+03  0.00000000000E+00 0. -1.
        6    2    1    2  502    0 -0.17624907043E+02 -0.44590286935E+02 -0.59100983688E+02  0.18912285156E+03  0.17313461720E+03 0.  0.
       24    2    3    3    0    0  0.40065098134E+02 -0.45910443566E+02  0.53346594908E+01  0.10249767264E+03  0.82245567591E+02 0.  0.
       -6    2    1    2    0  501  0.17624907043E+02  0.44590286935E+02 -0.80398356245E+03  0.82409350997E+03  0.17447525167E+03 0.  0.
      -24    2    5    5    0    0  0.38800722438E+02  0.19014981409E+02 -0.77294300104E+03  0.77839758167E+03  0.81208661544E+02 0.  0.
        5    1    3    3  502    0 -0.57690005177E+02  0.13201566313E+01 -0.64435643179E+02  0.86625178919E+02  0.47000000000E+01 0. -1.
      -11    1    4    4    0    0  0.50294658964E+01 -0.31754911894E+02  0.39930670533E+02  0.51265274853E+02  0.00000000000E+00 0.  1.
       12    1    4    4    0    0  0.35035632237E+02 -0.14155531672E+02 -0.34596011042E+02  0.51232397789E+02  0.00000000000E+00 0. -1.
       -5    1    5    5    0  501 -0.21175815394E+02  0.25575305526E+02 -0.31040561404E+02  0.45695928294E+02  0.47000000000E+01 0.  1.
        1    1    6    6  503    0 -0.21305440972E+02  0.22438026463E+02 -0.31451255110E+03  0.31603090299E+03  0.00000000000E+00 0. -1.
       -2    1    6    6    0  503  0.60106163410E+02 -0.34230450544E+01 -0.45843044994E+03  0.46236667868E+03  0.00000000000E+00 0.  1.
</event>
<event>
12   0  0.1544783E-01  0.1733212E+03  0.7957747E-01  0.1179810E+00
        2   -1    0    0  502    0  0.00000000000E+00  0.00000000000E+00  0.76559222869E+03  0.76559222869E+03  0.00000000000E+00 0. -1.
       -2   -1    0    0    0  501  0.00000000000E+00  0.00000000000E+00 -0.67550373283E+02  0.67550373283E+02  0.00000000000E+00 0.  1.
        6    2    1    2  502    0 -0.23304804072E+02 -0.15980223670E+02  0.62006672070E+03  0.64415152149E+03  0.17219164639E+03 0.  0.
       24    2    3    3    0    0 -0.73263377405E+01 -0.35582058032E+02  0.61050996353E+03  0.61671131552E+03  0.79313763199E+02 0.  0.
       -6    2    1    2    0  501  0.23304804072E+02  0.15980223670E+02  0.77975134711E+02  0.18899108048E+03  0.16982056832E+03 0.  0.
      -24    2    5    5    0    0  0.40106837604E+02  0.69628881565E+02  0.38376509611E+02  0.12006628135E+03  0.80538288146E+02 0.  0.
        5    1    3    3  502    0 -0.15978466331E+02  0.19601834362E+02  0.95567571608E+01  0.27440205977E+02  0.47000000000E+01 0. -1.
        2    1    4    4  503    0 -0.54367906380E+01  0.25516689462E+02  0.18878088560E+03  0.19057513715E+03  0.00000000000E+00 0. -1.
       -1    1    4    4    0  503 -0.18895471025E+01 -0.61098747494E+02  0.42172907794E+03  0.42613617836E+03  0.00000000000E+00 0.  1.
       -5    1    5    5    0  501 -0.16802033532E+02 -0.53648657895E+02  0.39598625101E+02  0.68924799126E+02  0.47000000000E+01 0.  1.
       13    1    6    6    0    0  0.35117817887E+02  0.11952449937E+02  0.48743065619E+02  0.61253641840E+02  0.00000000000E+00 0. -1.
      -14    1    6    6    0    0  0.49890197169E+01  0.57676431628E+02 -0.10366556009E+02  0.58812639514E+02  0.00000000000E+00 0.  1.
</event>
<event>
12   0  0.1544783E-01  0.1957471E+03  0.7957747E-01  0.1159500E+00
       21   -1    0    0  504  503  0.00000000000E+00  0.00000000000E+00  0.10456195519E+03  0.10456195519E+03  0.00000000000E+00 0.  1.
       21   -1    0    0  501  504  0.00000000000E+00  0.00000000000E+00 -0.47572018453E+03  0.47572018453E+03  0.00000000000E+00 0.  1.
        6    2    1    2  501    0 -0.54684868466E+02 -0.64429938332E+02 -0.32748177320E+03  0.37972150660E+03  0.17263388718E+03 0.  0.
       24    2    3    3    0    0 -0.12700895430E+02 -0.67275206499E+01 -0.28519988599E+03  0.29664280304E+03  0.80320640873E+02 0.  0.
       -6    2    1    2    0  503  0.54684868466E+02  0.64429938332E+02 -0.43676456140E+02  0.20056063313E+03  0.17656523708E+03 0.  0.
      -24    2    5    5    0    0  0.12255468005E+02 -0.15744794136E+02 -0.67785594409E+02  0.10658413448E+03  0.79794710821E+02 0.  0.
        5    1    3    3  501    0 -0.41983973036E+02 -0.57702417682E+02 -0.42281887208E+02  0.83078703554E+02  0.47000000000E+01 0. -1.
      -13    1    4    4    0    0  0.33438695420E+02 -0.87281260137E+01 -0.14368870817E+03  0.14778623545E+03  0.00000000000E+00 0.  1.
       14    1    4    4    0    0 -0.46139590850E+02  0.20006053638E+01 -0.14151117783E+03  0.14885656759E+03  0.00000000000E+00 0. -1.
       -5    1    5    5    0  503  0.42429400461E+02  0.80174732468E+02  0.24109138269E+02  0.93976498647E+02  0.47000000000E+01 0.  1.
        3    1    6    6  502    0 -0.30078875694E+01  0.26931334599E+02 -0.51915463153E+02  0.58562440910E+02  0.00000000000E+00 0. -1.
       -4    1    6    6    0  502  0.15263355575E+02 -0.42676128736E+02 -0.15870131256E+02  0.48021693570E+02  0.00000000000E+00 0.  1.
</event>
<event>
12   0  0.1544783E-01  0.2422639E+03  0.7957747E-01  0.1125548E+00
       21   -1    0    0  504  503  0.00000000000E+00  0.00000000000E+00  0.21529277810E+03  0.21529277810E+03  0.00000000000E+00 0.  1.
       21   -1    0    0  501  504  0.00000000000E+00  0.00000000000E+00 -0.37764268850E+03  0.37764268850E+03  0.00000000000E+00 0.  1.
        6    2    1    2  501    0 -0.18911070321E+02 -0.16825008159E+03 -0.23826651046E+03  0.33905536777E+03  0.17181936406E+03 0.  0.
       24    2    3    3    0    0 -0.66512479826E+02 -0.10276066819E+03 -0.97508980333E+02  0.17660682286E+03  0.81843165473E+02 0.  0.
       -6    2    1    2    0  503  0.18911070321E+02  0.16825008159E+03  0.75916600066E+02  0.25388009884E+03  0.17328028129E+03 0.  0.
      -24    2    5    5    0    0 -0.56315802891E+02  0.10148286199E+03  0.53041383426E+02  0.15062163863E+03  0.80020302029E+02 0.  0.
        5    1    3    3  501    0  0.47601409504E+02 -0.65489413406E+02 -0.14075753013E+03  0.16244854491E+03  0.47000000000E+01 0. -1.
      -11    1    4    4    0    0 -0.11581366874E+02 -0.25361278878E+02 -0.73639000929E+02  0.78740237381E+02  0.00000000000E+00 0.  1.
       12    1    4    4    0    0 -0.54931112952E+02 -0.77399389310E+02 -0.23869979404E+02  0.97866585475E+02  0.00000000000E+00 0. -1.
       -5    1    5    5    0  503  0.75226873212E+02  0.66767219609E+02  0.22875216641E+02  0.10325846021E+03  0.47000000000E+01 0.  1.
        1    1    6    6  502    0 -0.70750069370E+02  0.70305095201E+02  0.17639854213E+02  0.10128940312E+03  0.00000000000E+00 0. -1.
       -2    1    6    6    0  502  0.14434266479E+02  0.31177766784E+02  0.35401529212E+02  0.49332235516E+02  0.00000000000E+00 0.  1.
</event>
<event>
12   0  0.1544783E-01  0.1996389E+03  0.7957747E-01  0.1156279E+00
       21   -1    0    0  501  503  0.00000000000E+00  0.00000000000E+00  0.54890014469E+03  0.54890014469E+03  0.00000000000E+00 0.  1.
       21   -1    0    0  503  504  0.00000000000E+00  0.00000000000E+00 -0.96269951634E+02  0.96269951634E+02  0.00000000000E+00 0.  1.
        6    2    1    2  501    0 -0.91199518596E+02 -0.38789523323E+02  0.38764507955E+03  0.43603254872E+03  0.17330232695E+03 0.  0.
       24    2    3    3    0    0  0.41471256366E+01  0.11230650307E+02  0.21992138163E+03  0.23666773442E+03  0.86619144869E+02 0.  0.
       -6    2    1    2    0  504  0.91199518596E+02  0.38789523323E+02  0.64985113502E+02  0.20913754761E+03  0.17231793154E+03 0.  0.
      -24    2    5    5    0    0  0.20093388008E+02  0.73841826120E+02  0.66609977469E+02  0.12970533801E+03  0.80809814276E+02 0.  0.
        5    1    3    3  501    0 -0.95346644233E+02 -0.50020173629E+02  0.16772369792E+03  0.19936481430E+03  0.47000000000E+01 0. -1.
        2    1    4    4  502    0  0.41451694337E+02 -0.12274328040E+02  0.11506699095E+03  0.12291995159E+03  0.00000000000E+00 0. -1.
       -1    1    4    4    0  502 -0.37304568701E+02  0.23504978347E+02  0.10485439068E+03  0.11374778283E+03  0.00000000000E+00 0.  1.
       -5    1    5    5    0  504  0.71106130588E+02 -0.35052302798E+02 -0.16248639663E+01  0.79432209597E+02  0.47000000000E+01 0.  1.
       11    1    6    6    0    0  0.31697603238E+02  0.38041291185E+02  0.76193690994E+02  0.90869997432E+02  0.00000000000E+00 0. -1.
      -12    1    6    6    0    0 -0.11604215230E+02  0.35800534935E+02 -0.95837135257E+01  0.38835340577E+02  0.00000000000E+00 0.  1.
</event>
<event>
12   0  0.1544783E-01  0.2346516E+03  0.7957747E-01  0.1130505E+00
       21   -1    0    0  501  503  0.00000000000E+00  0.00000000000E+00  0.22667711727E+03  0.22667711727E+03  0.00000000000E+00 0.  1.
       21   -1    0    0  503  504  0.00000000000E+00  0.00000000000E+00 -0.24090331936E+03  0.24090331936E+03  0.00000000000E+00 0.  1.
        6    2    1    2  501    0 -0.73445951661E+02  0.13679670429E+03  0.14191060936E+02  0.23508033458E+03  0.17593672549E+03 0.  0.
       24    2    3    3    0    0  0.11454912711E+02  0.12085500316E+03 -0.83350420085E+01  0.14568341114E+03  0.80106407635E+02 0.  0.
       -6    2    1    2    0  504  0.73445951661E+02 -0.13679670429E+03 -0.28417263021E+02  0.23250010205E+03  0.17070767556E+03 0.  0.
      -24    2    5    5    0    0  0.61860110977E+01 -0.51190628565E+02  0.39382402897E+02  0.10415998944E+03  0.81483633675E+02 0.  0.
        5    1    3    3  501    0 -0.84900864372E+02  0.15941701134E+02  0.22526102945E+02  0.89396923437E+02  0.47000000000E+01 0. -1.
      -11    1    4    4    0    0  0.13128582738E+02  0.97377726504E+02  0.28198046944E+02  0.10222480695E+03  0.00000000000E+00 0.  1.
       12    1    4    4    0    0 -0.16736700274E+01  0.23477276651E+02 -0.36533088952E+02  0.43458604196E+02  0.00000000000E+00 0. -1.
       -5    1    5    5    0  504  0.67259940563E+02 -0.85606075725E+02 -0.67799665917E+02  0.12834011261E+03  0.47000000000E+01 0.  1.
        1    1    6    6  502    0 -0.28318413462E+01  0.21934764364E+02  0.42015837265E+01  0.22512363691E+02  0.00000000000E+00 0. -1.
       -2    1    6    6    0  502  0.90178524439E+01 -0.73125392929E+02  0.35180819170E+02  0.81647625753E+02  0.00000000000E+00 0.  1.
</event>
<event>
12   0  0.1544783E-01  0.1781674E+03  0.7957747E-01  0.1175145E+00
       21   -1    0    0  501  503  0.00000000000E+00  0.00000000000E+00  0.95806318664E+02  0.95806318664E+02  0.00000000000E+00 0.  1.
       21   -1    0    0  503  504  0.00000000000E+00  0.00000000000E+00 -0.71005792557E+03  0.71005792557E+03  0.00000000000E+00 0.  1.
        6    2    1    2  501    0  0.32036542260E+02  0.12668751036E+02 -0.12545860217E+02  0.17860853179E+03  0.17480495338E+03 0.  0.
       24    2    3    3    0    0 -0.39348628259E+02  0.43102786142E+02 -0.62240106745E+01  0.10060770587E+03  0.81712957679E+02 0.  0.
       -6    2    1    2    0  504 -0.32036542260E+02 -0.12668751036E+02 -0.60170574669E+03  0.62725571244E+03  0.17381911834E+03 0.  0.
      -24    2    5    5    0    0 -0.12015094567E+02 -0.76991351106E+02 -0.38133768381E+03  0.39677267970E+03  0.77059065758E+02 0.  0.
        5    1    3    3  501    0  0.71385170519E+02 -0.30434035106E+02 -0.63218495429E+01  0.78000825921E+02  0.47000000000E+01 0. -1.
      -13    1    4    4    0    0  0.17045502410E+02 -0.10846886582E+02  0.71384058549E+01  0.21428040953E+02  0.00000000000E+00 0.  1.
       14    1    4    4    0    0 -0.56394130669E+02  0.53949672724E+02 -0.13362416529E+02  0.79179664917E+02  0.00000000000E+00 0. -1.
       -5    1    5    5    0  504 -0.20021447693E+02  0.64322600069E+02 -0.22036806287E+03  0.23048303274E+03  0.47000000000E+01 0.  1.
        3    1    6    6  502    0 -0.39049741597E+02 -0.54424412047E+02 -0.31075857206E+03  0.31789587769E+03  0.00000000000E+00 0. -1.
       -4    1    6    6    0  502  0.27034647031E+02 -0.22566939059E+02 -0.70579111755E+02  0.78876802006E+02  0.00000000000E+00 0.  1.
</event>
<event>
12   0  0.1544783E-01  0.1964261E+03  0.7957747E-01  0.1158932E+00
       21   -1    0    0  504  503  0.00000000000E+00  0.00000000000E+00  0.26282540718E+03  0.26282540718E+03  0.00000000000E+00 0. -1.
       21   -1    0    0  501  504  0.00000000000E+00  0.00000000000E+00 -0.16541673668E+03  0.16541673668E+03  0.00000000000E+00 0.  1.
        6    2    1    2  501    0 -0.93808183025E+02 -0.78401834365E+01 -0.28281317830E+02  0.19504439158E+03  0.16846672690E+03 0.  0.
       24    2    3    3    0    0 -0.21957457432E+02 -0.19447945498E+02 -0.70105982689E+02  0.11096907119E+03  0.80863671890E+02 0.  0.
       -6    2    1    2    0  503  0.93808183025E+02  0.78401834365E+01  0.12568998832E+03  0.23319775228E+03  0.17240004299E+03 0.  0.
      -24    2    5    5    0    0 -0.12088133378E+02 -0.28786903843E+02  0.55780078880E+02  0.10104231807E+03  0.78251671168E+02 0.  0.
        5    1    3    3  501    0 -0.71850725593E+02  0.11607762061E+02  0.41824664859E+02  0.84075320391E+02  0.47000000000E+01 0. -1.
      -11    1    4    4    0    0  0.17474240536E+02  0.11835104972E+02 -0.54228225641E+02  0.58190370751E+02  0.00000000000E+00 0.  1.
       12    1    4    4    0    0 -0.39431697968E+02 -0.31283050470E+02 -0.15877757048E+02  0.52778700441E+02  0.00000000000E+00 0. -1.
       -5    1    5    5    0  503  0.10589631640E+03  0.36627087279E+02  0.69909909444E+02  0.13215543420E+03  0.47000000000E+01 0.  1.
        1    1    6    6  502    0 -0.23580861359E+01  0.21088377816E+02 -0.50174899567E+01  0.21804941059E+02  0.00000000000E+00 0. -1.
       -2    1    6    6    0  502 -0.97300472425E+01 -0.49875281658E+02  0.60797568836E+02  0.79237377015E+02  0.00000000000E+00 0.  1.
</event>
<event>
12   0  0.1544783E-01  0.1935566E+03  0.7957747E-01  0.1161349E+00
       21   -1    0    0  501  503  0.00000000000E+00  0.00000000000E+00  0.72764694431E+02  0.72764694431E+02  0.00000000000E+00 0.  1.
       21   -1    0    0  503  504  0.00000000000E+00  0.00000000000E+00 -0.68262066958E+03  0.68262066958E+03  0.00000000000E+00 0.  1.
        6    2    1    2  501    0  0.78924851655E+02  0.19871143739E+02 -0.11293634954E+03  0.22210002046E+03  0.17306012100E+03 0.  0.
       24    2    3    3    0    0  0.79932015051E+01  0.60603337160E+02 -0.55084796200E+02  0.12180394478E+03  0.89806516722E+02 0.  0.
       -6    2    1    2    0  504 -0.78924851655E+02 -0.19871143739E+02 -0.49691962561E+03  0.53328534355E+03  0.17561363492E+03 0.  0.
      -24    2    5    5    0    0 -0.10739481288E+02 -0.34363683881E+02 -0.42126694227E+03  0.43030623427E+03  0.80008870597E+02 0.  0.
        5    1    3    3  501    0  0.70931650150E+02 -0.40732193421E+02 -0.57851553344E+02  0.10029607569E+03  0.47000000000E+01 0. -1.
        2    1    4    4  502    0 -0.97192712436E+01  0.80460068809E+02 -0.48291821588E+02  0.94341862068E+02  0.00000000000E+00 0. -1.
       -1    1    4    4    0  502  0.17712472749E+02 -0.19856731649E+02 -0.67929746126E+01  0.27462082709E+02  0.00000000000E+00 0.  1.
       -5    1    5    5    0  504 -0.68185370367E+02  0.14492540142E+02 -0.75652683337E+02  0.10297910928E+03  0.47000000000E+01 0.  1.
       13    1    6    6    0    0 -0.18914726798E+02  0.20643292096E+02 -0.85566205926E+02  0.90030483698E+02  0.00000000000E+00 0. -1.
      -14    1    6    6    0    0  0.81752455106E+01 -0.55006975977E+02 -0.33570073634E+03  0.34027575057E+03  0.00000000000E+00 0.  1.
</event>
<event>
12   0  0.1544783E-01  0.2339388E+03  0.7957747E-01  0.1130980E+00
       21   -1    0    0  504  503  0.00000000000E+00  0.00000000000E+00  0.89563452742E+02  0.89563452742E+02  0.00000000000E+00 0.  1.
       21   -1    0    0  501  504  0.00000000000E+00  0.00000000000E+00 -0.12626330700E+04  0.12626330700E+04  0.00000000000E+00 0.  1.
        6    2    1    2  501    0 -0.15125237079E+03 -0.29001339150E+02 -0.10732129610E+04  0.10978371315E+04  0.17245854628E+03 0.  0.
       24    2    3    3    0    0 -0.17400281774E+03 -0.16159465628E+02 -0.77343764534E+03  0.79688891924E+03  0.79297222313E+02 0.  0.
       -6    2    1    2    0  503  0.15125237079E+03  0.29001339150E+02 -0.99856656236E+02  0.25435939127E+03  0.17609369890E+03 0.  0.
      -24    2    5    5    0    0  0.13725914411E+03  0.10844443637E+02 -0.13543322755E+03  0.21177693392E+03  0.86888641464E+02 0.  0.
        5    1    3    3  501    0  0.22750446950E+02 -0.12841873522E+02 -0.29977531567E+03  0.30094821222E+03  0.47000000000E+01 0. -1.
      -11    1    4    4    0    0 -0.11707785527E+03 -0.47570629659E+02 -0.48247656544E+03  0.49875226837E+03  0.00000000000E+00 0.  1.
       12    1    4    4    0    0 -0.56924962473E+02  0.31411164030E+02 -0.29096107990E+03  0.29813665087E+03  0.00000000000E+00 0. -1.
       -5    1    5    5    0  503  0.13993226677E+02  0.18156895513E+02  0.35576571316E+02  0.42582457352E+02  0.47000000000E+01 0.  1.
        3    1    6    6  502    0  0.92768536512E+01 -0.25505474870E+02 -0.38766243030E+02  0.47322413935E+02  0.00000000000E+00 0. -1.
       -4    1    6    6    0  502  0.12798229046E+03  0.36349918507E+02 -0.96666984522E+02  0.16445451999E+03  0.00000000000E+00 0.  1.
</event>
<event>
12   0  0.1544783E-01  0.1878191E+03  0.7957747E-01  0.1166322E+00
       21   -1    0    0  501  503  0.00000000000E+00  0.00000000000E+00  0.32343366328E+03  0.32343366328E+03  0.00000000000E+00 0. -1.
       21   -1    0    0  503  504  0.00000000000E+00  0.00000000000E+00 -0.10894417225E+03  0.10894417225E+03  0.00000000000E+00 0.  1.
        6    2    1    2  501    0  0.69911842240E+02 -0.24399660958E+02  0.11789428662E+03  0.22117498559E+03  0.17186128794E+03 0.  0.
       24    2    3    3    0    0 -0.45818561706E+00  0.40810386208E+02  0.67424088607E+02  0.11266866338E+03  0.80514113216E+02 0.  0.
       -6    2    1    2    0  504 -0.69911842240E+02  0.24399660958E+02  0.96595204412E+02  0.21120284995E+03  0.17260649226E+03 0.  0.
      -24    2    5    5    0    0 -0.88616545737E+02  0.65093330251E+00  0.12190034394E+03  0.17150010338E+03  0.81849103330E+02 0.  0.
        5    1    3    3  501    0  0.70370027857E+02 -0.65210047166E+02  0.50470198012E+02  0.10850632221E+03  0.47000000000E+01 0. -1.
        2    1    4    4  502    0  0.36937201376E+02  0.34639070154E+02  0.49238533040E+02  0.70630412448E+02  0.00000000000E+00 0. -1.
       -1    1    4    4    0  502 -0.37395386993E+02  0.61713160537E+01  0.18185555566E+02  0.42038250932E+02  0.00000000000E+00 0.  1.
       -5    1    5    5    0  504  0.18704703497E+02  0.23748727655E+02 -0.25305139528E+02  0.39702746564E+02  0.47000000000E+01 0.  1.
       13    1    6    6    0    0 -0.77172626452E+02 -0.15766019813E+02  0.12824852231E+03  0.15050536579E+03  0.00000000000E+00 0. -1.
      -14    1    6    6    0    0 -0.11443919285E+02  0.16416953115E+02 -0.63481783752E+01  0.20994737599E+02  0.00000000000E+00 0.  1.
</event>
<event>
12   0  0.1544783E-01  0.2397341E+03  0.7957747E-01  0.1127173E+00
       21   -1    0    0  501  503  0.00000000000E+00  0.00000000000E+00  0.15471338797E+03  0.15471338797E+03  0.00000000000E+00 0.  1.
       21   -1    0    0  503  504  0.00000000000E+00  0.00000000000E+00 -0.40941465913E+03  0.40941465913E+03  0.00000000000E+00 0.  1.
        6    2    1    2  501    0  0.16202153968E+03  0.36722586712E+02 -0.38547196274E+02  0.24281336685E+03  0.17283783465E+03 0.  0.
       24    2    3    3    0    0  0.15978377677E+03  0.77857684991E+02 -0.15525036434E+02  0.19538749061E+03  0.79640255542E+02 0.  0.
       -6    2    1    2    0  504 -0.16202153968E+03 -0.36722586712E+02 -0.21615407489E+03  0.32131468025E+03  0.17006178864E+03 0.  0.
      -24    2    5    5    0    0 -0.14113989732E+03  0.24845819095E+02 -0.18995816998E+03  0.25106493281E+03  0.80073146569E+02 0.  0.
        5    1    3    3  501    0  0.22377629187E+01 -0.41135098279E+02 -0.23022159840E+02  0.47425876239E+02  0.47000000000E+01 0. -1.
      -11    1    4    4    0    0  0.16685905737E+03  0.75103504850E+02 -0.23371904537E+02  0.18446877077E+03  0.00000000000E+00 0.  1.
       12    1    4    4    0    0 -0.70752806095E+01  0.27541801418E+01  0.78468681033E+01  0.10918719842E+02  0.00000000000E+00 0. -1.
       -5    1    5    5    0  504 -0.20881642363E+02 -0.61568405807E+02 -0.26195904910E+02  0.70249747440E+02  0.47000000000E+01 0.  1.
        1    1    6    6  502    0  0.15592656829E+00  0.20274796649E+02 -0.11204862298E+02  0.23165505204E+02  0.00000000000E+00 0. -1.
       -2    1    6    6    0  502 -0.14129582389E+03  0.45710224458E+01 -0.17875330768E+03  0.22789942760E+03  0.00000000000E+00 0.  1.
</event>
<event>
12   0  0.1544783E-01  0.2263495E+03  0.7957747E-01  0.1136151E+00
       21   -1    0    0  501  503  0.00000000000E+00  0.00000000000E+00  0.82779188721E+02  0.82779188721E+02  0.00000000000E+00 0.  1.
       21   -1    0    0  503  504  0.00000000000E+00  0.00000000000E+00 -0.62617917193E+03  0.62617917193E+03  0.00000000000E+00 0.  1.
        6    2    1    2  501    0 -0.21304985855E+02 -0.14304380575E+03 -0.22551973246E+03  0.31872518087E+03  0.17265908145E+03 0.  0.
       24    2    3    3    0    0 -0.32693948230E+02 -0.10234979398E+03 -0.57894901855E+02  0.14579200044E+03  0.79744047761E+02 0.  0.
       -6    2    1    2    0  504  0.21304985855E+02  0.14304380575E+03 -0.31788025075E+03  0.39023317978E+03  0.17412250860E+03 0.  0.
      -24    2    5    5    0    0  0.29406182695E+02  0.37993658726E+01 -0.10856576276E+03  0.13865955575E+03  0.80998696259E+02 0.  0.
        5    1    3    3  501    0  0.11388962375E+02 -0.40694011769E+02 -0.16762483061E+03  0.17293318043E+03  0.47000000000E+01 0. -1.
        2    1    4    4  502    0  0.83239879332E+01 -0.69812831390E+02 -0.61365706887E+02  0.93321327592E+02  0.00000000000E+00 0. -1.
       -1    1    4    4    0  502 -0.41017936163E+02 -0.32536962589E+02  0.34708050319E+01  0.52470672848E+02  0.00000000000E+00 0.  1.
       -5    1    5    5    0  504 -0.81011968397E+01  0.13924443987E+03 -0.20931448799E+03  0.25157362403E+03  0.47000000000E+01 0.  1.
       13    1    6    6    0    0  0.33116011925E+02  0.38826615725E+02 -0.63930654011E+02  0.81800396434E+02  0.00000000000E+00 0. -1.
      -14    1    6    6    0    0 -0.37098292303E+01 -0.35027249853E+02 -0.44635108749E+02  0.56859159317E+02  0.00000000000E+00 0.  1.
</event>
<event>
12   0  0.1544783E-01  0.2028192E+03  0.7957747E-01  0.1153706E+00
        2   -1    0    0  502    0  0.00000000000E+00  0.00000000000E+00  0.22965643409E+03  0.22965643409E+03  0.00000000000E+00 0. -1.
       -2   -1    0    0    0  501  0.00000000000E+00  0.00000000000E+00 -0.25438983961E+03  0.25438983961E+03  0.00000000000E+00 0.  1.
        6    2    1    2  502    0 -0.40266419857E+02  0.83410024127E+02 -0.14410002151E+03  0.25363601139E+03  0.18705024294E+03 0.  0.
       24    2    3    3    0    0  0.90135385999E+00  0.15547562401E+02 -0.15120488784E+03  0.17380701648E+03  0.84281799545E+02 0.  0.
       -6    2    1    2    0  501  0.40266419857E+02 -0.83410024127E+02  0.11936661600E+03  0.23041026230E+03  0.17395942994E+03 0.  0.
      -24    2    5    5    0    0 -0.82787395062E+01 -0.94152666678E+02  0.12932497560E+03  0.17948584976E+03  0.80975050370E+02 0.  0.
        5    1    3    3  502    0 -0.41167773717E+02  0.67862461726E+02  0.71048663251E+01  0.79828994919E+02  0.47000000000E+01 0. -1.
      -11    1    4    4    0    0 -0.39763976041E+02  0.19495323593E+02 -0.88571821505E+02  0.99026304572E+02  0.00000000000E+00 0.  1.
       12    1    4    4    0    0  0.40665329901E+02 -0.39477611918E+01 -0.62633066334E+02  0.74780711904E+02  0.00000000000E+00 0. -1.
       -5    1    5    5    0  501  0.48545159363E+02  0.10742642551E+02 -0.99583595962E+01  0.50924412539E+02  0.47000000000E+01 0.  1.
        1    1    6    6  503    0 -0.36240465387E+02 -0.84796091744E+02  0.11275918169E+03  0.14566530665E+03  0.00000000000E+00 0. -1.
       -2    1    6    6    0  503  0.27961725880E+02 -0.93565749333E+01  0.16565793906E+02  0.33820543113E+02  0.00000000000E+00 0.  1.
</event>
<event>
12   0  0.1544783E-01  0.2158428E+03  0.7957747E-01  0.1143687E+00
       21   -1    0    0  504  503  0.00000000000E+00  0.00000000000E+00  0.17701231911E+03  0.17701231911E+03  0.00000000000E+00 0. -1.
       21   -1    0    0  501  504  0.00000000000E+00  0.00000000000E+00 -0.38482208356E+03  0.38482208356E+03  0.00000000000E+00 0. -1.
        6    2    1    2  501    0  0.27315807465E+02  0.11736639910E+03 -0.27001370657E+03  0.34568124724E+03  0.17907288456E+03 0.  0.
       24    2    3    3    0    0  0.50476665402E+02  0.12564477755E+03 -0.13162136608E+03  0.20504168383E+03  0.79896209056E+02 0.  0.
       -6    2    1    2    0  503 -0.27315807465E+02 -0.11736639910E+03  0.62203942122E+02  0.21615315542E+03  0.16832062027E+03 0.  0.
      -24    2    5    5    0    0 -0.60847128252E+02 -0.11860036731E+03  0.83300139864E+02  0.17624060463E+03  0.79708326275E+02 0.  0.
        5    1    3    3  501    0 -0.23160857937E+02 -0.82783784564E+01 -0.13839234049E+03  0.14063956342E+03  0.47000000000E+01 0. -1.
      -13    1    4    4    0    0  0.66673404954E+02  0.61615820144E+02 -0.69023863897E+02  0.11404449135E+03  0.00000000000E+00 0.  1.
       14    1    4    4    0    0 -0.16196739553E+02  0.64028957410E+02 -0.62597502184E+02  0.90997192477E+02  0.00000000000E+00 0. -1.
       -5    1    5    5    0  503  0.33531320787E+02  0.12339682138E+01 -0.21096197742E+02  0.39912550788E+02  0.47000000000E+01 0.  1.
        1    1    6    6  502    0 -0.25438992725E+02  0.11918862759E+01  0.32745035731E+02  0.41482530164E+02  0.00000000000E+00 0. -1.
       -2    1    6    6    0  502 -0.35408135527E+02 -0.11979225359E+03  0.50555104133E+02  0.13475807447E+03  0.00000000000E+00 0.  1.
</event>
<event>
12   0  0.1544783E-01  0.3297502E+03  0.7957747E-01  0.1079826E+00
       -1   -1    0    0    0  501  0.00000000000E+00  0.00000000000E+00  0.14662484893E+03  0.14662484893E+03  0.00000000000E+00 0.  1.
        1   -1    0    0  502    0  0.00000000000E+00  0.00000000000E+00 -0.80446762356E+03  0.80446762356E+03  0.00000000000E+00 0. -1.
        6    2    1    2  502    0 -0.18076574584E+03 -0.21302952555E+03 -0.46033838464E+03  0.56530183428E+03  0.17203750127E+03 0.  0.
       24    2    3    3    0    0 -0.17638914335E+02 -0.46173567851E+02 -0.15449151858E+03  0.18057378844E+03  0.79348182665E+02 0.  0.
       -6    2    1    2    0  501  0.18076574584E+03  0.21302952555E+03 -0.19750438999E+03  0.38579063820E+03  0.17823747875E+03 0.  0.
      -24    2    5    5    0    0  0.25728757707E+02  0.29041883446E+02 -0.64568401198E+02  0.11086885432E+03  0.81347553477E+02 0.  0.
        5    1    3    3  502    0 -0.16312683151E+03 -0.16685595770E+03 -0.30584686606E+03  0.38472804584E+03  0.47000000000E+01 0. -1.
      -11    1    4    4    0    0 -0.31437659222E+02  0.84489277007E+01 -0.31526861598E+02  0.45317257186E+02  0.00000000000E+00 0.  1.
       12    1    4    4    0    0  0.13798744887E+02 -0.54622495552E+02 -0.12296465698E+03  0.13525653125E+03  0.00000000000E+00 0. -1.
       -5    1    5    5    0  501  0.15503698813E+03  0.18398764211E+03 -0.13293598879E+03  0.27492178388E+03  0.47000000000E+01 0.  1.
        1    1    6    6  503    0 -0.29318257686E+02  0.70208289259E+01 -0.28410105596E+02  0.41424465869E+02  0.00000000000E+00 0. -1.
       -2    1    6    6    0  503  0.55047015393E+02  0.22021054520E+02 -0.36158295601E+02  0.69444388446E+02  0.00000000000E+00 0.  1.
</event>
<event>
12   0  0.1544783E-01  0.2260946E+03  0.7957747E-01  0.1136328E+00
       21   -1    0    0  501  503  0.00000000000E+00  0.00000000000E+00  0.24636477932E+03  0.24636477932E+03  0.00000000000E+00 0. -1.
       21   -1    0    0  503  504  0.00000000000E+00  0.00000000000E+00 -0.35373401321E+03  0.35373401321E+03  0.00000000000E+00 0.  1.
        6    2    1    2  501    0 -0.46138253840E+02 -0.13328696019E+03  0.14045771416E+03  0.26463352455E+03  0.17437998918E+03 0.  0.
       24    2    3    3    0    0 -0.19935607399E+02 -0.71525310892E+02  0.16399760094E+01  0.11038199480E+03  0.81659027149E+02 0.  0.
       -6    2    1    2    0  504  0.46138253840E+02  0.13328696019E+03 -0.24782694806E+03  0.33546526798E+03  0.17670483189E+03 0.  0.
      -24    2    5    5    0    0  0.12932207014E+02  0.11731925195E+03 -0.79547040724E+02  0.16313469476E+03  0.79712910448E+02 0.  0.
        5    1    3    3  501    0 -0.26202646441E+02 -0.61761649297E+02  0.13881773815E+03  0.15425152975E+03  0.47000000000E+01 0. -1.
      -11    1    4    4    0    0  0.12068221683E+02 -0.34692020307E+02  0.35426595432E+02  0.51031577592E+02  0.00000000000E+00 0.  1.
       12    1    4    4    0    0 -0.32003829082E+02 -0.36833290585E+02 -0.33786619423E+02  0.59350417212E+02  0.00000000000E+00 0. -1.
       -5    1    5    5    0  504  0.33206046825E+02  0.15967708242E+02 -0.16827990733E+03  0.17233057321E+03  0.47000000000E+01 0.  1.
        3    1    6    6  502    0  0.12891421803E+02  0.95074756600E+02 -0.95800831431E+02  0.13558465032E+03  0.00000000000E+00 0. -1.
       -4    1    6    6    0  502  0.40785211107E-01  0.22244495348E+02  0.16253790707E+02  0.27550044448E+02  0.00000000000E+00 0.  1.
</event>
<event>
12   0  0.1544783E-01  0.2431944E+03  0.7957747E-01  0.1124956E+00
       -2   -1    0    0    0  501  0.00000000000E+00  0.00000000000E+00  0.15418212382E+03  0.15418212382E+03  0.00000000000E+00 0. -1.
        2   -1    0    0  502    0  0.00000000000E+00  0.00000000000E+00 -0.38648321748E+03  0.38648321748E+03  0.00000000000E+00 0.  1.
        6    2    1    2  502    0  0.52323575279E+02  0.16224782214E+03 -0.13929539929E+03  0.27986154329E+03  0.17279225339E+03 0.  0.
       24    2    3    3    0    0  0.22111935003E+02  0.16420275679E+03 -0.15878827314E+03  0.24354863776E+03  0.81552070850E+02 0.  0.
       -6    2    1    2    0  501 -0.52323575279E+02 -0.16224782214E+03 -0.93005694367E+02  0.26080379800E+03  0.17408747671E+03 0.  0.
      -24    2    5    5    0    0 -0.79176401948E+02 -0.12783348013E+03 -0.14710463785E+02  0.17103935979E+03  0.80173334623E+02 0.  0.
        5    1    3    3  502    0  0.30211640276E+02 -0.19549346454E+01  0.19492873849E+02  0.36312905537E+02  0.47000000000E+01 0. -1.
        2    1    4    4  503    0  0.52813681805E+02  0.10384803986E+03 -0.10848601288E+03  0.15919458332E+03  0.00000000000E+00 0. -1.
       -1    1    4    4    0  503 -0.30701746802E+02  0.60354716930E+02 -0.50302260259E+02  0.84354054435E+02  0.00000000000E+00 0.  1.
       -5    1    5    5    0  501  0.26852826669E+02 -0.34414342017E+02 -0.78295230583E+02  0.89764438218E+02  0.47000000000E+01 0.  1.
       11    1    6    6    0    0 -0.31539334841E+02 -0.14327591539E+02  0.23834499864E+02  0.42048696832E+02  0.00000000000E+00 0. -1.
      -12    1    6    6    0    0 -0.47637067107E+02 -0.11350588859E+03 -0.38544963649E+02  0.12899066295E+03  0.00000000000E+00 0.  1.
</event>
<event>
12   0  0.1544783E-01  0.1774018E+03  0.7957747E-01  0.1175871E+00
       21   -1    0    0  501  503  0.00000000000E+00  0.00000000000E+00  0.57528085152E+03  0.57528085152E+03  0.00000000000E+00 0. -1.
       21   -1    0    0  503  504  0.00000000000E+00  0.00000000000E+00 -0.72908443590E+02  0.72908443590E+02  0.00000000000E+00 0. -1.
        6    2    1    2  501    0  0.15344106568E+02 -0.32919960957E+02  0.41363603237E+03  0.44983219043E+03  0.17301753331E+03 0.  0.
       24    2    3    3    0    0 -0.15973732408E+02 -0.81618754065E+02  0.26210722269E+03  0.28755018387E+03  0.84072176821E+02 0.  0.
       -6    2    1    2    0  504 -0.15344106568E+02  0.32919960957E+02  0.88736375555E+02  0.19835710468E+03  0.17364397828E+03 0.  0.
      -24    2    5    5    0    0 -0.72547701029E+01 -0.28850657902E+02  0.10045625962E+03  0.13479223702E+03  0.84808578062E+02 0.  0.
        5    1    3    3  501    0  0.31317838976E+02  0.48698793108E+02  0.15152880968E+03  0.16228200655E+03  0.47000000000E+01 0. -1.
        4    1    4    4  502    0 -0.67090133362E+00 -0.96574157921E+02  0.22185583186E+03  0.24196493179E+03  0.00000000000E+00 0. -1.
       -3    1    4    4    0  502 -0.15302831074E+02  0.14955403855E+02  0.40251390837E+02  0.45585252085E+02  0.00000000000E+00 0.  1.
       -5    1    5    5    0  504 -0.80893364652E+01  0.61770618859E+02 -0.11719884061E+02  0.63564867664E+02  0.47000000000E+01 0.  1.
       11    1    6    6    0    0  0.28192391077E+01 -0.22919005001E+02 -0.89482461891E+01  0.24764894695E+02  0.00000000000E+00 0. -1.
      -12    1    6    6    0    0 -0.10074009211E+02 -0.59316529012E+01  0.10940450580E+03  0.11002734232E+03  0.00000000000E+00 0.  1.
</event>
<event>
12   0  0.1544783E-01  0.1766846E+03  0.7957747E-01  0.1176555E+00
       21   -1    0    0  501  503  0.00000000000E+00  0.00000000000E+00  0.30191826292E+03  0.30191826292E+03  0.00000000000E+00 0. -1.
       21   -1    0    0  503  504  0.00000000000E+00  0.00000000000E+00 -0.10225267460E+03  0.10225267460E+03  0.00000000000E+00 0. -1.
        6    2    1    2  501    0  0.22420034778E+02  0.10318969439E+02  0.10398008558E+03  0.20324019849E+03  0.17287446600E+03 0.  0.
       24    2    3    3    0    0  0.13845354130E+02 -0.43169126066E+02  0.14552622881E+02  0.98579496249E+02  0.86318427764E+02 0.  0.
       -6    2    1    2    0  504 -0.22420034778E+02 -0.10318969439E+02  0.95685502730E+02  0.20093073902E+03  0.17495230025E+03 0.  0.
      -24    2    5    5    0    0 -0.65318484337E+02 -0.51474219217E+02  0.48630628217E+02  0.12496836166E+03  0.79599332758E+02 0.  0.
        5    1    3    3  501    0  0.85746806475E+01  0.53488095505E+02  0.89427462703E+02  0.10466070225E+03  0.47000000000E+01 0. -1.
        2    1    4    4  502    0  0.47654383398E+02 -0.41146803208E+02  0.39280795678E+01  0.63082719348E+02  0.00000000000E+00 0. -1.
       -1    1    4    4    0  502 -0.33809029268E+02 -0.20223228581E+01  0.10624543313E+02  0.35496776901E+02  0.00000000000E+00 0.  1.
       -5    1    5    5    0  504  0.42898449559E+02  0.41155249778E+02  0.47054874514E+02  0.75962377361E+02  0.47000000000E+01 0.  1.
       11    1    6    6    0    0 -0.70873480720E+01 -0.51131571079E+02  0.43322144873E+01  0.51801893267E+02  0.00000000000E+00 0. -1.
      -12    1    6    6    0    0 -0.58231136265E+02 -0.34264813841E+00  0.44298413729E+02  0.73166468395E+02  0.00000000000E+00 0.  1.
</event>
<event>
12   0  0.1544783E-01  0.2292695E+03  0.7957747E-01  0.1134135E+00
       21   -1    0    0  504  503  0.00000000000E+00  0.00000000000E+00  0.80567682591E+03  0.80567682591E+03  0.00000000000E+00 0.  1.
       21   -1    0    0  501  504  0.00000000000E+00  0.00000000000E+00 -0.76763261718E+02  0.76763261718E+02  0.00000000000E+00 0. -1.
        6    2    1    2  501    0 -0.13605222079E+03 -0.55402067516E+02  0.18807516513E+03  0.29501291223E+03  0.17343804306E+03 0.  0.
       24    2    3    3    0    0 -0.92240715958E+02 -0.10432518946E+03  0.13440641122E+03  0.21006972556E+03  0.81682993229E+02 0.  0.
       -6    2    1    2    0  503  0.13605222079E+03  0.55402067516E+02  0.54083839907E+03  0.58742717540E+03  0.17602532949E+03 0.  0.
      -24    2    5    5    0    0  0.11510688817E+03 -0.25408377302E+02  0.29493694929E+03  0.32769914850E+03  0.80645809152E+02 0.  0.
        5    1    3    3  501    0 -0.43811504832E+02  0.48923121945E+02  0.53668753904E+02  0.84943186673E+02  0.47000000000E+01 0. -1.
        2    1    4    4  502    0 -0.51390864893E+02 -0.40548253230E+02  0.12639577301E+02  0.66670388846E+02  0.00000000000E+00 0. -1.
       -1    1    4    4    0  502 -0.40849851065E+02 -0.63776936231E+02  0.12176683392E+03  0.14339933671E+03  0.00000000000E+00 0.  1.
       -5    1    5    5    0  503  0.20945332624E+02  0.80810444818E+02  0.24590144978E+03  0.25972802689E+03  0.47000000000E+01 0.  1.
       11    1    6    6    0    0 -0.37967784041E+01 -0.14780509289E+02  0.83555599992E+02  0.84937725842E+02  0.00000000000E+00 0. -1.
      -12    1    6    6    0    0  0.11890366657E+03 -0.10627868013E+02  0.21138134930E+03  0.24276142266E+03  0.00000000000E+00 0.  1.
</event>
<event>
12   0  0.1544783E-01  0.2818689E+03  0.7957747E-01  0.1102619E+00
       21   -1    0    0  501  503  0.00000000000E+00  0.00000000000E+00  0.77166535455E+03  0.77166535455E+03  0.00000000000E+00 0.  1.
       21   -1    0    0  503  504  0.00000000000E+00  0.00000000000E+00 -0.10388687203E+03  0.10388687203E+03  0.00000000000E+00 0.  1.
        6    2    1    2  501    0 -0.72219370969E+02  0.20561041637E+03  0.40072410798E+03  0.48992845234E+03  0.17877023475E+03 0.  0.
       24    2    3    3    0    0  0.27043879728E+02  0.12613907596E+03  0.22913450255E+03  0.27630736355E+03  0.84856944184E+02 0.  0.
       -6    2    1    2    0  504  0.72219370969E+02 -0.20561041637E+03  0.26705437454E+03  0.38562377423E+03  0.17290568362E+03 0.  0.
      -24    2    5    5    0    0  0.28617655054E+02 -0.17732342452E+02  0.88253643595E+02  0.12258181622E+03  0.78129315303E+02 0.  0.
        5    1    3    3  501    0 -0.99263250698E+02  0.79471340407E+02  0.17158960543E+03  0.21362108879E+03  0.47000000000E+01 0. -1.
        4    1    4    4  502    0  0.53201300417E+02  0.55488943209E+02  0.92439677856E+02  0.12022684903E+03  0.00000000000E+00 0. -1.
       -3    1    4    4    0  502 -0.26157420689E+02  0.70650132754E+02  0.13669482469E+03  0.15608051452E+03  0.00000000000E+00 0.  1.
       -5    1    5    5    0  504  0.43601715915E+02 -0.18787807392E+03  0.17880073095E+03  0.26304195802E+03  0.47000000000E+01 0.  1.
       11    1    6    6    0    0  0.20303414306E+01 -0.20527114101E+02 -0.84201592400E+01  0.22279671929E+02  0.00000000000E+00 0. -1.
      -12    1    6    6    0    0  0.26587313624E+02  0.27947716492E+01  0.96673802835E+02  0.10030214429E+03  0.00000000000E+00 0.  1.
</event>
<event>
12   0  0.1544783E-01  0.1941570E+03  0.7957747E-01  0.1160839E+00
       21   -1    0    0  504  503  0.00000000000E+00  0.00000000000E+00  0.12436174179E+03  0.12436174179E+03  0.00000000000E+00 0. -1.
       21   -1    0    0  501  504  0.00000000000E+00  0.00000000000E+00 -0.73980698535E+03  0.73980698535E+03  0.00000000000E+00 0. -1.
        6    2    1    2  501    0  0.59994168715E+02  0.64198729703E+02 -0.63974315206E+03  0.66849720778E+03  0.17290586754E+03 0.  0.
       24    2    3    3    0    0 -0.31533123188E+02  0.13211875485E+02 -0.17955050890E+03  0.19650540353E+03  0.72160216580E+02 0.  0.
       -6    2    1    2    0  503 -0.59994168715E+02 -0.64198729703E+02  0.24297908503E+02  0.19567151936E+03  0.17313629878E+03 0.  0.
      -24    2    5    5    0    0 -0.97513687614E+02 -0.50055738699E+02  0.50625563786E+02  0.14747427954E+03  0.84683051252E+02 0.  0.
        5    1    3    3  501    0  0.91527291903E+02  0.50986854218E+02 -0.46019264316E+03  0.47199180425E+03  0.47000000000E+01 0. -1.
      -11    1    4    4    0    0 -0.13103297731E+02 -0.23576845523E+02 -0.25732594609E+02  0.37279089066E+02  0.00000000000E+00 0.  1.
       12    1    4    4    0    0 -0.18429825458E+02  0.36788721009E+02 -0.15381791429E+03  0.15922631446E+03  0.00000000000E+00 0. -1.
       -5    1    5    5    0  503  0.37519518899E+02 -0.14142991004E+02 -0.26327655283E+02  0.48197239814E+02  0.47000000000E+01 0.  1.
        3    1    6    6  502    0 -0.58288999188E+02  0.81430203454E+01 -0.33284710589E+01  0.58949087578E+02  0.00000000000E+00 0. -1.
       -4    1    6    6    0  502 -0.39224688426E+02 -0.58198759044E+02  0.53954034845E+02  0.88525191965E+02  0.00000000000E+00 0.  1.
</event>
<event>
12   0  0.1544783E-01  0.1810090E+03  0.7957747E-01  0.1172485E+00
       21   -1    0    0  501  503  0.00000000000E+00  0.00000000000E+00  0.90701141418E+03  0.90701141418E+03  0.00000000000E+00 0. -1.
       21   -1    0    0  503  504  0.00000000000E+00  0.00000000000E+00 -0.38782481696E+02  0.38782481696E+02  0.00000000000E+00 0. -1.
        6    2    1    2  501    0 -0.49008765978E+02  0.13147372222E+02  0.55948401378E+03  0.58790048264E+03  0.17329138257E+03 0.  0.
       24    2    3    3    0    0  0.12492775106E+02  0.57467261723E+02  0.23645667217E+03  0.25606400847E+03  0.78730318304E+02 0.  0.
       -6    2    1    2    0  504  0.49008765978E+02 -0.13147372222E+02  0.30874491871E+03  0.35789341324E+03  0.17375142553E+03 0.  0.
      -24    2    5    5    0    0  0.29894363751E+02  0.53078077729E+02  0.81848236037E+02  0.12071127816E+03  0.64506771843E+02 0.  0.
        5    1    3    3  501    0 -0.61501541084E+02 -0.44319889501E+02  0.32302734160E+03  0.33183647416E+03  0.47000000000E+01 0. -1.
      -13    1    4    4    0    0  0.42700389267E+02  0.48024107230E+02  0.18282550712E+03  0.19379061941E+03  0.00000000000E+00 0.  1.
       14    1    4    4    0    0 -0.30207614161E+02  0.94431544932E+01  0.53631165058E+02  0.62273389064E+02  0.00000000000E+00 0. -1.
       -5    1    5    5    0  504  0.19114402227E+02 -0.66225449951E+02  0.22689668267E+03  0.23718213508E+03  0.47000000000E+01 0.  1.
        1    1    6    6  502    0 -0.98184634901E+00  0.46258151375E+02  0.75362745543E+02  0.88432595838E+02  0.00000000000E+00 0. -1.
       -2    1    6    6    0  502  0.30876210100E+02  0.68199263543E+01  0.64854904936E+01  0.32278682324E+02  0.00000000000E+00 0.  1.
</event>
<event>
12   0  0.1544783E-01  0.2087344E+03  0.7957747E-01  0.1149056E+00
       21   -1    0    0  504  503  0.00000000000E+00  0.00000000000E+00  0.10231735605E+03  0.10231735605E+03  0.00000000000E+00 0. -1.
       21   -1    0    0  501  504  0.00000000000E+00  0.00000000000E+00 -0.43130388537E+03  0.43130388537E+03  0.00000000000E+00 0. -1.
        6    2    1    2  501    0  0.56205237241E+02  0.91975838944E+02 -0.11706019474E+03  0.23931803440E+03  0.17874968184E+03 0.  0.
       24    2    3    3    0    0  0.41102300239E+02  0.35009914177E+01  0.36483465940E+00  0.91444355612E+02  0.81610544926E+02 0.  0.
       -6    2    1    2    0  503 -0.56205237241E+02 -0.91975838944E+02 -0.21192633458E+03  0.29430320701E+03  0.17344458113E+03 0.  0.
      -24    2    5    5    0    0 -0.77844198490E+02 -0.30386963698E+02 -0.62818933758E+02  0.13146420315E+03  0.79709042583E+02 0.  0.
        5    1    3    3  501    0  0.15102937002E+02  0.88474847526E+02 -0.11742502940E+03  0.14787367879E+03  0.47000000000E+01 0. -1.
        2    1    4    4  502    0  0.35604715260E+02 -0.16646687252E+02 -0.33509410703E+02  0.51649671353E+02  0.00000000000E+00 0. -1.
       -1    1    4    4    0  502  0.54975849789E+01  0.20147678670E+02  0.33874245362E+02  0.39794684259E+02  0.00000000000E+00 0.  1.
       -5    1    5    5    0  503  0.21638961248E+02 -0.61588875245E+02 -0.14910740083E+03  0.16283900386E+03  0.47000000000E+01 0.  1.
       11    1    6    6    0    0 -0.30213346472E+01 -0.37991287169E+02 -0.33505044605E+02  0.50744993623E+02  0.00000000000E+00 0. -1.
      -12    1    6    6    0    0 -0.74822863843E+02  0.76043234705E+01 -0.29313889153E+02  0.80719209525E+02  0.00000000000E+00 0.  1.
</event>
<event>
12   0  0.1544783E-01  0.1830899E+03  0.7957747E-01  0.1170570E+00
       21   -1    0    0  504  503  0.00000000000E+00  0.00000000000E+00  0.19248188843E+03  0.19248188843E+03  0.00000000000E+00 0. -1.
       21   -1    0    0  501  504  0.00000000000E+00  0.00000000000E+00 -0.26526067085E+03  0.26526067085E+03  0.00000000000E+00 0. -1.
        6    2    1    2  501    0 -0.29422100231E+02 -0.52413462346E+02 -0.17089678901E+03  0.25045486492E+03  0.17294246400E+03 0.  0.
       24    2    3    3    0    0 -0.58631033957E+02 -0.27689526025E+02 -0.18282982619E+03  0.21009495644E+03  0.80677365992E+02 0.  0.
       -6    2    1    2    0  503  0.29422100231E+02  0.52413462346E+02  0.98118006588E+02  0.20728769435E+03  0.17241871706E+03 0.  0.
      -24    2    5    5    0    0  0.87074769458E+01  0.68013305381E+02  0.12908026468E+03  0.16662810573E+03  0.80009880794E+02 0.  0.
        5    1    3    3  501    0  0.29208933727E+02 -0.24723936321E+02  0.11933037179E+02  0.40359908486E+02  0.47000000000E+01 0. -1.
        2    1    4    4  502    0  0.12697432896E+02 -0.28342945405E+02 -0.70398204334E+02  0.76944489925E+02  0.00000000000E+00 0. -1.
       -1    1    4    4    0  502 -0.71328466854E+02  0.65341937980E+00 -0.11243162185E+03  0.13315046651E+03  0.00000000000E+00 0.  1.
       -5    1    5    5    0  503  0.20714623285E+02 -0.15599843035E+02 -0.30962258092E+02  0.40659588620E+02  0.47000000000E+01 0.  1.
       13    1    6    6    0    0 -0.10498240652E+02  0.72137499011E+02  0.58805637148E+02  0.93659675318E+02  0.00000000000E+00 0. -1.
      -14    1    6    6    0    0  0.19205717598E+02 -0.41241936297E+01  0.70274627533E+02  0.72968430409E+02  0.00000000000E+00 0.  1.
</event>
<event>
12   0  0.1544783E-01  0.1956471E+03  0.7957747E-01  0.1159583E+00
        4   -1    0    0  502    0  0.00000000000E+00  0.00000000000E+00  0.45129637944E+03  0.45129637944E+03  0.00000000000E+00 0. -1.
       -4   -1    0    0    0  501  0.00000000000E+00  0.00000000000E+00 -0.87644176603E+02  0.87644176603E+02  0.00000000000E+00 0.  1.
        6    2    1    2  502    0  0.38113830162E+02 -0.92079028224E+02  0.22703254768E+03  0.29757327966E+03  0.16454442431E+03 0.  0.
       24    2    3    3    0    0  0.43356710241E+02 -0.44793131059E+02  0.57791004682E+02  0.12170903162E+03  0.87103726915E+02 0.  0.
       -6    2    1    2    0  501 -0.38113830162E+02  0.92079028224E+02  0.13661965515E+03  0.24136727638E+03  0.17222665428E+03 0.  0.
      -24    2    5    5    0    0  0.10435843699E+02 -0.56970810104E+01  0.91590473080E+02  0.12318540126E+03  0.81513586343E+02 0.  0.
        5    1    3    3  502    0 -0.52428800795E+01 -0.47285897165E+02  0.16924154300E+03  0.17586424804E+03  0.47000000000E+01 0. -1.
      -11    1    4    4    0    0  0.52361361817E+02 -0.15088212978E+02  0.69691460950E+02  0.88466186260E+02  0.00000000000E+00 0.  1.
       12    1    4    4    0    0 -0.90046515754E+01 -0.29704918081E+02 -0.11900456267E+02  0.33242845359E+02  0.00000000000E+00 0. -1.
       -5    1    5    5    0  501 -0.48549673861E+02  0.97776109235E+02  0.45029182075E+02  0.11818187512E+03  0.47000000000E+01 0.  1.
        1    1    6    6  503    0  0.42703901667E+02  0.13121711399E+02  0.55472579412E+02  0.71225062964E+02  0.00000000000E+00 0. -1.
       -2    1    6    6    0  503 -0.32268057967E+02 -0.18818792409E+02  0.36117893668E+02  0.51960338295E+02  0.00000000000E+00 0.  1.
</event>
<event>
12   0  0.1544783E-01  0.2561134E+03  0.7957747E-01  0.1117020E+00
        2   -1    0    0  502    0  0.00000000000E+00  0.00000000000E+00  0.98785682765E+03  0.98785682765E+03  0.00000000000E+00 0. -1.
       -2   -1    0    0    0  501  0.00000000000E+00  0.00000000000E+00 -0.69847665468E+02  0.69847665468E+02  0.00000000000E+00 0.  1.
        6    2    1    2  502    0  0.11163459537E+03 -0.14598881388E+03  0.33584818586E+03  0.42028923602E+03  0.17341863024E+03 0.  0.
       24    2    3    3    0    0  0.72152247219E+02 -0.13712590869E+03  0.33666227368E+03  0.37954417936E+03  0.81870849255E+02 0.  0.
       -6    2    1    2    0  501 -0.11163459537E+03  0.14598881388E+03  0.58216097632E+03  0.63741525709E+03  0.18333518747E+03 0.  0.
      -24    2    5    5    0    0 -0.13214163066E+03  0.55687051394E+02  0.32685465509E+03  0.36579354503E+03  0.80053068558E+02 0.  0.
        5    1    3    3  502    0  0.39482348147E+02 -0.88629051833E+01 -0.81408781460E+00  0.40745056663E+02  0.47000000000E+01 0. -1.
      -11    1    4    4    0    0  0.74576688698E+02 -0.54586943096E+02  0.18798932450E+03  0.20947888433E+03  0.00000000000E+00 0.  1.
       12    1    4    4    0    0 -0.24244414783E+01 -0.82538965596E+02  0.14867294918E+03  0.17006529503E+03  0.00000000000E+00 0. -1.
       -5    1    5    5    0  501  0.20507035293E+02  0.90301762481E+02  0.25530632123E+03  0.27162171206E+03  0.47000000000E+01 0.  1.
        3    1    6    6  503    0 -0.54888646888E+02  0.29808376305E+02  0.23432829384E+03  0.24250990113E+03  0.00000000000E+00 0. -1.
       -4    1    6    6    0  503 -0.77252983772E+02  0.25878675089E+02  0.92526361258E+02  0.12328364390E+03  0.00000000000E+00 0.  1.
</event>
<event>
12   0  0.1544783E-01  0.2244346E+03  0.7957747E-01  0.1137490E+00
       21   -1    0    0  504  503  0.00000000000E+00  0.00000000000E+00  0.56321113209E+02  0.56321113209E+02  0.00000000000E+00 0.  1.
       21   -1    0    0  501  504  0.00000000000E+00  0.00000000000E+00 -0.13307177329E+04  0.13307177329E+04  0.00000000000E+00 0.  1.
        6    2    1    2  501    0  0.81385383362E+02 -0.11693045781E+03 -0.10356880274E+04  0.10597266614E+04  0.17342028188E+03 0.  0.
       24    2    3    3    0    0  0.12263302362E+03 -0.74501425479E+02 -0.72407227709E+03  0.74250740527E+03  0.80294853793E+02 0.  0.
       -6    2    1    2    0  503 -0.81385383362E+02  0.11693045781E+03 -0.23870859229E+03  0.32731218473E+03  0.17278646257E+03 0.  0.
      -24    2    5    5    0    0  0.58364247167E+01  0.56359354084E+01 -0.94433250976E+02  0.12524393231E+03  0.81869262059E+02 0.  0.
        5    1    3    3  501    0 -0.41247640262E+02 -0.42429032328E+02 -0.31161575035E+03  0.31721925616E+03  0.47000000000E+01 0. -1.
      -11    1    4    4    0    0 -0.50714875230E+01 -0.27011692439E+02 -0.97986772966E+02  0.10176816393E+03  0.00000000000E+00 0.  1.
       12    1    4    4    0    0  0.12770451115E+03 -0.47489733040E+02 -0.62608550412E+03  0.64073924133E+03  0.00000000000E+00 0. -1.
       -5    1    5    5    0  503 -0.87221808078E+02  0.11129452240E+03 -0.14427534132E+03  0.20206825241E+03  0.47000000000E+01 0.  1.
        3    1    6    6  502    0 -0.26096292556E+02  0.25123020440E+02 -0.74536549785E+02  0.82872672788E+02  0.00000000000E+00 0. -1.
       -4    1    6    6    0  502  0.31932717273E+02 -0.19487085032E+02 -0.19896701190E+02  0.42371259525E+02  0.00000000000E+00 0.  1.
</event>
<event>
12   0  0.1544783E-01  0.2346243E+03  0.7957747E-01  0.1130523E+00
       -1   -1    0    0    0  501  0.00000000000E+00  0.00000000000E+00  0.43105760999E+02  0.43105760999E+02  0.00000000000E+00 0.  1.
        1   -1    0    0  502    0  0.00000000000E+00  0.00000000000E+00 -0.12830325039E+04  0.12830325039E+04  0.00000000000E+00 0. -1.
        6    2    1    2  502    0 -0.12226535076E+03 -0.96123443187E+02 -0.56962725833E+03  0.61526876336E+03  0.17289275698E+03 0.  0.
       24    2    3    3    0    0 -0.40371005892E+02 -0.11300113785E+03 -0.41210358545E+03  0.43686658340E+03  0.81387783359E+02 0.  0.
       -6    2    1    2    0  501  0.12226535076E+03  0.96123443187E+02 -0.67029948457E+03  0.71086950153E+03  0.17845312231E+03 0.  0.
      -24    2    5    5    0    0  0.31192247640E+02  0.86328056767E+02 -0.22632539166E+03  0.25752046946E+03  0.81658554851E+02 0.  0.
        5    1    3    3  502    0 -0.81894344871E+02  0.16877694662E+02 -0.15752367288E+03  0.17840217996E+03  0.47000000000E+01 0. -1.
        4    1    4    4  503    0 -0.13980095425E+02 -0.10508298591E+03 -0.38024645359E+03  0.39474706138E+03  0.00000000000E+00 0. -1.
       -3    1    4    4    0  503 -0.26390910467E+02 -0.79181519427E+01 -0.31857131857E+02  0.42119522025E+02  0.00000000000E+00 0.  1.
       -5    1    5    5    0  501  0.91073103123E+02  0.97953864205E+01 -0.44397409290E+03  0.45334903207E+03  0.47000000000E+01 0.  1.
       11    1    6    6    0    0 -0.26896304885E+02  0.28180993005E+02 -0.93925494491E+02  0.10168371600E+03  0.00000000000E+00 0. -1.
      -12    1    6    6    0    0  0.58088552525E+02  0.58147063762E+02 -0.13239989717E+03  0.15583675346E+03  0.00000000000E+00 0.  1.
</event>
<event>
12   0  0.1544783E-01  0.2725937E+03  0.7957747E-01  0.1107605E+00
       21   -1    0    0  504  503  0.00000000000E+00  0.00000000000E+00  0.52964421106E+03  0.52964421106E+03  0.00000000000E+00 0. -1.
       21   -1    0    0  501  504  0.00000000000E+00  0.00000000000E+00 -0.26147880438E+03  0.26147880438E+03  0.00000000000E+00 0. -1.
        6    2    1    2  501    0 -0.14959590531E+03  0.14706523227E+03 -0.13633098396E+03  0.30478433311E+03  0.17406962714E+03 0.  0.
       24    2    3    3    0    0 -0.68534702541E+02  0.69691836702E+02  0.15309915908E+01  0.12706102220E+03  0.81167739112E+02 0.  0.
       -6    2    1    2    0  503  0.14959590531E+03 -0.14706523227E+03  0.40449639064E+03  0.48633868233E+03  0.17000254839E+03 0.  0.
      -24    2    5    5    0    0  0.94469815374E+02 -0.16888520901E+03  0.33257964670E+03  0.39301609538E+03  0.80035429555E+02 0.  0.
        5    1    3    3  501    0 -0.81061202766E+02  0.77373395567E+02 -0.13786197555E+03  0.17772331090E+03  0.47000000000E+01 0. -1.
      -11    1    4    4    0    0 -0.82300439780E+02  0.59993899171E+02 -0.15606856679E+02  0.10303496640E+03  0.00000000000E+00 0.  1.
       12    1    4    4    0    0  0.13765737239E+02  0.96979375315E+01  0.17137848269E+02  0.24026055802E+02  0.00000000000E+00 0. -1.
       -5    1    5    5    0  503  0.55126089933E+02  0.21819976744E+02  0.71916743940E+02  0.93322586952E+02  0.47000000000E+01 0.  1.
        3    1    6    6  502    0  0.27792383691E+02 -0.57047503290E+02  0.46410926179E+02  0.78618116816E+02  0.00000000000E+00 0. -1.
       -4    1    6    6    0  502  0.66677431683E+02 -0.11183770572E+03  0.28616872052E+03  0.31439797856E+03  0.00000000000E+00 0.  1.
</event>
<event>
12   0  0.1544783E-01  0.2130310E+03  0.7957747E-01  0.1145783E+00
       21   -1    0    0  501  503  0.00000000000E+00  0.00000000000E+00  0.51242404466E+03  0.51242404466E+03  0.00000000000E+00 0. -1.
       21   -1    0    0  503  504  0.00000000000E+00  0.00000000000E+00 -0.11370331991E+03  0.11370331991E+03  0.00000000000E+00 0.  1.
        6    2    1    2  501    0  0.10169971646E+03 -0.49417949392E+02  0.35218668256E+03  0.40807318884E+03  0.17234645926E+03 0.  0.
       24    2    3    3    0    0  0.83990411950E+02 -0.39550654163E+02  0.11019590543E+03  0.16518924700E+03  0.80781843304E+02 0.  0.
       -6    2    1    2    0  504 -0.10169971646E+03  0.49417949392E+02  0.46534042180E+02  0.21805417574E+03  0.18054705875E+03 0.  0.
      -24    2    5    5    0    0 -0.75596750937E+02  0.10305060814E+03  0.38636251950E+02  0.15770277157E+03  0.83923224479E+02 0.  0.
        5    1    3    3  501    0  0.17709304512E+02 -0.98672952289E+01  0.24199077714E+03  0.24288394184E+03  0.47000000000E+01 0. -1.
        4    1    4    4  502    0  0.82870174168E+02 -0.18479200896E+02  0.43833268679E+02  0.95552614174E+02  0.00000000000E+00 0. -1.
       -3    1    4    4    0  502  0.11202377825E+01 -0.21071453266E+02  0.66362636746E+02  0.69636632826E+02  0.00000000000E+00 0.  1.
       -5    1    5    5    0  504 -0.26102965526E+02 -0.53632658750E+02  0.78977902297E+01  0.60351404163E+02  0.47000000000E+01 0.  1.
       13    1    6    6    0    0 -0.21026179269E+00 -0.11768581494E+02  0.13768893799E+02  0.18114252865E+02  0.00000000000E+00 0. -1.
      -14    1    6    6    0    0 -0.75386489144E+02  0.11481918964E+03  0.24867358150E+02  0.13958851871E+03  0.00000000000E+00 0.  1.
</event>
<event>
12   0  0.1544783E-01  0.2421959E+03  0.7957747E-01  0.1125592E+00
       21   -1    0    0  501  503  0.00000000000E+00  0.00000000000E+00  0.61633634442E+03  0.61633634442E+03  0.00000000000E+00 0. -1.
       21   -1    0    0  503  504  0.00000000000E+00  0.00000000000E+00 -0.12141543228E+03  0.12141543228E+03  0.00000000000E+00 0.  1.
        6    2    1    2  501    0  0.99850302832E+02 -0.13766851204E+03  0.60149781416E+02  0.24007236320E+03  0.15841098821E+03 0.  0.
       24    2    3    3    0    0  0.10516510826E+03 -0.69492486193E+02  0.78160506423E+02  0.16920139684E+03  0.81431826065E+02 0.  0.
       -6    2    1    2    0  504 -0.99850302832E+02  0.13766851204E+03  0.43477113072E+03  0.49767941350E+03  0.17244175924E+03 0.  0.
      -24    2    5    5    0    0 -0.51962054217E+02  0.14408531676E+03  0.23392650610E+03  0.29105145562E+03  0.80800408293E+02 0.  0.
        5    1    3    3  501    0 -0.53148054275E+01 -0.68176025852E+02 -0.18010725008E+02  0.70870966362E+02  0.47000000000E+01 0. -1.
      -13    1    4    4    0    0  0.35378521728E+02 -0.53023996242E+02  0.83707904452E+00  0.63748605306E+02  0.00000000000E+00 0.  1.
       14    1    4    4    0    0  0.69786586532E+02 -0.16468489951E+02  0.77323427379E+02  0.10545279154E+03  0.00000000000E+00 0. -1.
       -5    1    5    5    0  504 -0.47888248615E+02 -0.64168047111E+01  0.20084462462E+03  0.20662795788E+03  0.47000000000E+01 0.  1.
        3    1    6    6  502    0 -0.44068705353E+02  0.19303854199E+02  0.67535522068E+02  0.82920059813E+02  0.00000000000E+00 0. -1.
       -4    1    6    6    0  502 -0.78933488648E+01  0.12478146256E+03  0.16639098403E+03  0.20813139581E+03  0.00000000000E+00 0.  1.
</event>
<event>
12   0  0.1544783E-01  0.1961034E+03  0.7957747E-01  0.1159201E+00
       21   -1    0    0  501  503  0.00000000000E+00  0.00000000000E+00  0.91174844855E+02  0.91174844855E+02  0.00000000000E+00 0. -1.
       21   -1    0    0  503  504  0.00000000000E+00  0.00000000000E+00 -0.42132563501E+03  0.42132563501E+03  0.00000000000E+00 0.  1.
        6    2    1    2  501    0  0.40547563915E+02  0.17088679341E+02 -0.23249126203E+03  0.29342533272E+03  0.17352265288E+03 0.  0.
       24    2    3    3    0    0  0.35065837203E+02 -0.57138279258E+02 -0.13056211113E+03  0.16712674796E+03  0.79940534930E+02 0.  0.
       -6    2    1    2    0  504 -0.40547563915E+02 -0.17088679341E+02 -0.97659528130E+02  0.21907514715E+03  0.19110313645E+03 0.  0.
      -24    2    5    5    0    0 -0.14558761451E+02 -0.13304955242E+02 -0.14371269243E+03  0.16585185935E+03  0.80402250697E+02 0.  0.
        5    1    3    3  501    0  0.54817267118E+01  0.74226958599E+02 -0.10192915090E+03  0.12629858477E+03  0.47000000000E+01 0. -1.
        2    1    4    4  502    0 -0.20999832002E+02 -0.30405490002E+00 -0.47413190438E+02  0.51856494492E+02  0.00000000000E+00 0. -1.
       -1    1    4    4    0  502  0.56065669205E+02 -0.56834224358E+02 -0.83148920689E+02  0.11527025346E+03  0.00000000000E+00 0.  1.
       -5    1    5    5    0  504 -0.25988802463E+02 -0.37837240990E+01  0.46053164298E+02  0.53223287792E+02  0.47000000000E+01 0.  1.
       11    1    6    6    0    0 -0.86634875716E-01 -0.34910138390E+02 -0.21713601669E+02  0.41112112150E+02  0.00000000000E+00 0. -1.
      -12    1    6    6    0    0 -0.14472126575E+02  0.21605183147E+02 -0.12199909076E+03  0.12473974720E+03  0.00000000000E+00 0.  1.
</event>
<event>
12   0  0.1544783E-01  0.1913849E+03  0.7957747E-01  0.1163209E+00
       21   -1    0    0  501  503  0.00000000000E+00  0.00000000000E+00  0.33476563145E+03  0.33476563145E+03  0.00000000000E+00 0.  1.
       21   -1    0    0  503  504  0.00000000000E+00  0.00000000000E+00 -0.11365333238E+03  0.11365333238E+03  0.00000000000E+00 0.  1.
        6    2    1    2  501    0 -0.30837099462E+02  0.71004259486E+02  0.15899269743E+03  0.24720507828E+03  0.17274009762E+03 0.  0.
       24    2    3    3    0    0 -0.70389556265E+02  0.10493045531E+02  0.13068430727E+03  0.16942681135E+03  0.81007793468E+02 0.  0.
       -6    2    1    2    0  504  0.30837099462E+02 -0.71004259486E+02  0.62119601651E+02  0.20121388554E+03  0.17503042952E+03 0.  0.
      -24    2    5    5    0    0 -0.50487919454E+02 -0.44544225670E+02  0.22671121081E+02  0.10691561032E+03  0.79898372620E+02 0.  0.
        5    1    3    3  501    0  0.39552456803E+02  0.60511213955E+02  0.28308390153E+02  0.77778266930E+02  0.47000000000E+01 0. -1.
      -13    1    4    4    0    0 -0.31620086316E+02  0.44895193512E+02  0.55213976714E+02  0.77871634654E+02  0.00000000000E+00 0.  1.
       14    1    4    4    0    0 -0.38769469949E+02 -0.34402147982E+02  0.75470330559E+02  0.91555176700E+02  0.00000000000E+00 0. -1.
       -5    1    5    5    0  504  0.81325018916E+02 -0.26460033816E+02  0.39448480571E+02  0.94298275226E+02  0.47000000000E+01 0.  1.
        1    1    6    6  502    0 -0.30578036421E+02 -0.38487928357E+02 -0.24818549794E+02  0.55066299625E+02  0.00000000000E+00 0. -1.
       -2    1    6    6    0  502 -0.19909883033E+02 -0.60562973136E+01  0.47489670875E+02  0.51849310693E+02  0.00000000000E+00 0.  1.
</event>
<event>
12   0  0.1544783E-01  0.2139488E+03  0.7957747E-01  0.1145095E+00
       -2   -1    0    0    0  501  0.00000000000E+00  0.00000000000E+00  0.98014501345E+02  0.98014501345E+02  0.00000000000E+00 0.  1.
        2   -1    0    0  502    0  0.00000000000E+00  0.00000000000E+00 -0.46785183379E+03  0.46785183379E+03  0.00000000000E+00 0. -1.
        6    2    1    2  502    0 -0.49759632297E+01  0.12524752609E+03 -0.17324474468E+03  0.27556081182E+03  0.17380539823E+03 0.  0.
       24    2    3    3    0    0  0.34275225986E+01  0.15829240346E+03 -0.15984887241E+03  0.23862679108E+03  0.79516353693E+02 0.  0.
       -6    2    1    2    0  501  0.49759632297E+01 -0.12524752609E+03 -0.19659258776E+03  0.29030552331E+03  0.17296516499E+03 0.  0.
      -24    2    5    5    0    0  0.16995535347E+02 -0.52036421055E+02 -0.21411682858E+02  0.10000372233E+03  0.80905172754E+02 0.  0.
        5    1    3    3  502    0 -0.84034858282E+01 -0.33044877372E+02 -0.13395872270E+02  0.36934020746E+02  0.47000000000E+01 0. -1.
        2    1    4    4  503    0  0.23119430964E+02  0.26799069009E+02 -0.70682079472E+01  0.36092350318E+02  0.00000000000E+00 0. -1.
       -1    1    4    4    0  503 -0.19691908365E+02  0.13149333445E+03 -0.15278066446E+03  0.20253444076E+03  0.00000000000E+00 0.  1.
       -5    1    5    5    0  501 -0.12019572117E+02 -0.73211105034E+02 -0.17518090490E+03  0.19030180098E+03  0.47000000000E+01 0.  1.
       11    1    6    6    0    0  0.84849105773E+01  0.20577832475E+02 -0.14503572353E+02  0.26566793331E+02  0.00000000000E+00 0. -1.
      -12    1    6    6    0    0  0.85106247697E+01 -0.72614253529E+02 -0.69081105044E+01  0.73436928996E+02  0.00000000000E+00 0.  1.
</event>
<event>
12   0  0.1544783E-01  0.1803734E+03  0.7957747E-01  0.1173075E+00
       21   -1    0    0  504  503  0.00000000000E+00  0.00000000000E+00  0.77386015504E+02  0.77386015504E+02  0.00000000000E+00 0. -1.
       21   -1    0    0  501  504  0.00000000000E+00  0.00000000000E+00 -0.46537927974E+03  0.46537927974E+03  0.00000000000E+00 0. -1.
        6    2    1    2  501    0 -0.38525781345E+02 -0.33078943445E+02 -0.28079489358E+03  0.33373693408E+03  0.17307835389E+03 0.  0.
       24    2    3    3    0    0 -0.18708981886E+02 -0.22510368033E+02 -0.29540676238E+03  0.30653404753E+03  0.76427903036E+02 0.  0.
       -6    2    1    2    0  503  0.38525781345E+02  0.33078943445E+02 -0.10719837066E+03  0.20902836116E+03  0.17211308134E+03 0.  0.
      -24    2    5    5    0    0  0.81556214264E+02 -0.13933143223E+02 -0.76731896805E+02  0.13823252456E+03  0.79842960207E+02 0.  0.
        5    1    3    3  501    0 -0.19816799459E+02 -0.10568575412E+02  0.14611868803E+02  0.27202886556E+02  0.47000000000E+01 0. -1.
        2    1    4    4  502    0 -0.43158808482E+02 -0.31437589771E+02 -0.16078399281E+03  0.16941811339E+03  0.00000000000E+00 0. -1.
       -1    1    4    4    0  502  0.24449826596E+02  0.89272217384E+01 -0.13462276957E+03  0.13711593414E+03  0.00000000000E+00 0.  1.
       -5    1    5    5    0  503 -0.43030432919E+02  0.47012086669E+02 -0.30466473851E+02  0.70795836594E+02  0.47000000000E+01 0.  1.
       11    1    6    6    0    0 -0.15767562441E+02  0.15891231807E+01 -0.15720046543E+02  0.22321765188E+02  0.00000000000E+00 0. -1.
      -12    1    6    6    0    0  0.97323776705E+02 -0.15522266404E+02 -0.61011850262E+02  0.11591075937E+03  0.00000000000E+00 0.  1.
</event>
<event>
12   0  0.1544783E-01  0.1963030E+03  0.7957747E-01  0.1159035E+00
       21   -1    0    0  501  503  0.00000000000E+00  0.00000000000E+00  0.52780080128E+03  0.52780080128E+03  0.00000000000E+00 0. -1.
       21   -1    0    0  503  504  0.00000000000E+00  0.00000000000E+00 -0.15658952189E+03  0.15658952189E+03  0.00000000000E+00 0. -1.
        6    2    1    2  501    0  0.79331592781E+02 -0.30653628603E+02  0.43851088103E+03  0.48044423976E+03  0.17692294419E+03 0.  0.
       24    2    3    3    0    0  0.14417163498E+02 -0.37040620906E-01  0.78658804621E+02  0.11347439702E+03  0.80506988881E+02 0.  0.
       -6    2    1    2    0  504 -0.79331592781E+02  0.30653628603E+02 -0.67299601640E+02  0.20394608341E+03  0.17271833138E+03 0.  0.
      -24    2    5    5    0    0  0.25908021964E+02  0.11302320604E+02 -0.41206101054E+02  0.93706297457E+02  0.79271428433E+02 0.  0.
        5    1    3    3  501    0  0.64914429283E+02 -0.30616587982E+02  0.35985207641E+03  0.36696984274E+03  0.47000000000E+01 0. -1.
        4    1    4    4  502    0 -0.30723080328E+02  0.10160773457E+02  0.48261909637E+02  0.58106461809E+02  0.00000000000E+00 0. -1.
       -3    1    4    4    0  502  0.45140243825E+02 -0.10197814078E+02  0.30396894984E+02  0.55367935208E+02  0.00000000000E+00 0.  1.
       -5    1    5    5    0  504 -0.10523961475E+03  0.19351307999E+02 -0.26093500586E+02  0.11023978595E+03  0.47000000000E+01 0.  1.
       13    1    6    6    0    0  0.87799454955E+01  0.41263548757E+02 -0.41522048809E+02  0.59193314118E+02  0.00000000000E+00 0. -1.
      -14    1    6    6    0    0  0.17128076469E+02 -0.29961228153E+02  0.31594775558E+00  0.34512983339E+02  0.00000000000E+00 0.  1.
</event>
<event>
12   0  0.1544783E-01  0.2070382E+03  0.7957747E-01  0.1150372E+00
        1   -1    0    0  502    0  0.00000000000E+00  0.00000000000E+00  0.33845085850E+03  0.33845085850E+03  0.00000000000E+00 0. -1.
       -1   -1    0    0    0  501  0.00000000000E+00  0.00000000000E+00 -0.15770587904E+03  0.15770587904E+03  0.00000000000E+00 0.  1.
        6    2    1    2  502    0  0.10522868784E+03  0.48661553115E+02  0.20032699450E+03  0.28782027033E+03  0.17108062366E+03 0.  0.
       24    2    3    3    0    0  0.39683549179E+02  0.29026658640E+02  0.23517217968E+02  0.98174597140E+02  0.81656971505E+02 0.  0.
       -6    2    1    2    0  501 -0.10522868784E+03 -0.48661553115E+02 -0.19582015046E+02  0.20833646720E+03  0.17198722266E+03 0.  0.
      -24    2    5    5    0    0 -0.61244363315E+02 -0.74091686281E+02  0.38916144858E+02  0.13071277759E+03  0.79567040170E+02 0.  0.
        5    1    3    3  502    0  0.65545138664E+02  0.19634894475E+02  0.17680977653E+03  0.18964567319E+03  0.47000000000E+01 0. -1.
        4    1    4    4  503    0  0.37901193626E+02  0.11472661688E+01  0.47901544519E+02  0.61093163818E+02  0.00000000000E+00 0. -1.
       -3    1    4    4    0  503  0.17823555525E+01  0.27879392471E+02 -0.24384326551E+02  0.37081433322E+02  0.00000000000E+00 0.  1.
       -5    1    5    5    0  501 -0.43984324527E+02  0.25430133166E+02 -0.58498159903E+02  0.77623689613E+02  0.47000000000E+01 0.  1.
       13    1    6    6    0    0  0.17703607231E+02 -0.21725064701E+02 -0.68240296490E+00  0.28033227054E+02  0.00000000000E+00 0. -1.
      -14    1    6    6    0    0 -0.78947970546E+02 -0.52366621580E+02  0.39598547823E+02  0.10267955054E+03  0.00000000000E+00 0.  1.
</event>
<event>
12   0  0.1544783E-01  0.1816910E+03  0.7957747E-01  0.1171854E+00
       21   -1    0    0  504  503  0.00000000000E+00  0.00000000000E+00  0.26408063620E+03  0.26408063620E+03  0.00000000000E+00 0.  1.
       21   -1    0    0  501  504  0.00000000000E+00  0.00000000000E+00 -0.24127384402E+03  0.24127384402E+03  0.00000000000E+00 0.  1.
        6    2    1    2  501    0 -0.31069589197E+02  0.34099356073E+02 -0.16601167567E+03  0.24331622993E+03  0.17179879462E+03 0.  0.
       24    2    3    3    0    0  0.24424848028E+02  0.10797969387E+02 -0.16171470186E+03  0.18279234069E+03  0.80921107718E+02 0.  0.
       -6    2    1    2    0  503  0.31069589197E+02 -0.34099356073E+02  0.18881846785E+03  0.26203825029E+03  0.17573714848E+03 0.  0.
      -24    2    5    5    0    0 -0.38224458889E+02 -0.52720469100E+02  0.14281866823E+03  0.17667735458E+03  0.81099682544E+02 0.  0.
        5    1    3    3  501    0 -0.55494437225E+02  0.23301386686E+02 -0.42969738081E+01  0.60523889236E+02  0.47000000000E+01 0. -1.
      -13    1    4    4    0    0 -0.17807080574E+02  0.14715327724E+02 -0.12369285598E+03  0.12583145715E+03  0.00000000000E+00 0.  1.
       14    1    4    4    0    0  0.42231928602E+02 -0.39173583365E+01 -0.38021845886E+02  0.56960883546E+02  0.00000000000E+00 0. -1.
       -5    1    5    5    0  503  0.69294048086E+02  0.18621113027E+02  0.45999799625E+02  0.85360895708E+02  0.47000000000E+01 0.  1.
        3    1    6    6  502    0 -0.17904034592E+02 -0.59363515353E+02  0.45163216975E+02  0.76709175313E+02  0.00000000000E+00 0. -1.
       -4    1    6    6    0  502 -0.20320424296E+02  0.66430462526E+01  0.97655451253E+02  0.99968179270E+02  0.00000000000E+00 0.  1.
</event>
<event>
12   0  0.1544783E-01  0.2197753E+03  0.7957747E-01  0.1140812E+00
       21   -1    0    0  504  503  0.00000000000E+00  0.00000000000E+00  0.76293284761E+03  0.76293284761E+03  0.00000000000E+00 0.  1.
       21   -1    0    0  501  504  0.00000000000E+00  0.00000000000E+00 -0.74168021386E+02  0.74168021386E+02  0.00000000000E+00 0. -1.
        6    2    1    2  501    0 -0.13504554796E+03  0.12355723332E+02  0.18377509986E+03  0.28648642494E+03  0.17294860630E+03 0.  0.
       24    2    3    3    0    0 -0.16413647432E+03  0.29574910114E+02  0.16463484436E+03  0.24735559603E+03  0.79149866724E+02 0.  0.
       -6    2    1    2    0  503  0.13504554796E+03 -0.12355723332E+02  0.50498972636E+03  0.55061444406E+03  0.17254471407E+03 0.  0.
      -24    2    5    5    0    0  0.96032410577E+02  0.10892606837E+02  0.16332748735E+03  0.20591503108E+03  0.79901559030E+02 0.  0.
        5    1    3    3  501    0  0.29090926358E+02 -0.17219186781E+02  0.19140255506E+02  0.39130828902E+02  0.47000000000E+01 0. -1.
      -13    1    4    4    0    0 -0.16886640800E+03  0.21310636830E+02  0.16598110355E+03  0.23773879307E+03  0.00000000000E+00 0.  1.
       14    1    4    4    0    0  0.47299336798E+01  0.82642732833E+01 -0.13462591924E+01  0.96168029682E+01  0.00000000000E+00 0. -1.
       -5    1    5    5    0  503  0.39013137384E+02 -0.23248330170E+02  0.34166223900E+03  0.34469941297E+03  0.47000000000E+01 0.  1.
        1    1    6    6  502    0  0.18601248107E+02  0.17064672078E+02  0.20668924698E+00  0.25243854395E+02  0.00000000000E+00 0. -1.
       -2    1    6    6    0  502  0.77431162470E+02 -0.61720652400E+01  0.16312079811E+03  0.18067117669E+03  0.00000000000E+00 0.  1.
</event>
<event>
12   0  0.1544783E-01  0.2006908E+03  0.7957747E-01  0.1155422E+00
       21   -1    0    0  504  503  0.00000000000E+00  0.00000000000E+00  0.13718686901E+03  0.13718686901E+03  0.00000000000E+00 0.  1.
       21   -1    0    0  501  504  0.00000000000E+00  0.00000000000E+00 -0.48004505753E+03  0.48004505753E+03  0.00000000000E+00 0.  1.
        6    2    1    2  501    0 -0.37426905072E+01  0.10144529868E+03 -0.36487487448E+03  0.41533710503E+03  0.17048777209E+03 0.  0.
       24    2    3    3    0    0 -0.11546731220E+02  0.12162666828E+03 -0.36314243894E+03  0.39312715088E+03  0.88034949673E+02 0.  0.
       -6    2    1    2    0  503  0.37426905072E+01 -0.10144529868E+03  0.22016685959E+02  0.20189482151E+03  0.17312315887E+03 0.  0.
      -24    2    5    5    0    0  0.29014424089E+02 -0.27152476486E+02  0.67313966303E+02  0.11116435500E+03  0.79039546928E+02 0.  0.
        5    1    3    3  501    0  0.78040407129E+01 -0.20181369601E+02 -0.17324355398E+01  0.22209954149E+02  0.47000000000E+01 0. -1.
      -13    1    4    4    0    0 -0.32607311370E+02  0.80095199423E+01 -0.60795878934E+02  0.69451623882E+02  0.00000000000E+00 0.  1.
       14    1    4    4    0    0  0.21060580149E+02  0.11361714834E+03 -0.30234656001E+03  0.32367552700E+03  0.00000000000E+00 0. -1.
       -5    1    5    5    0  503 -0.25271733581E+02 -0.74292822191E+02 -0.45297280345E+02  0.90730466514E+02  0.47000000000E+01 0.  1.
        3    1    6    6  502    0  0.15303877791E+02  0.15087502944E+02 -0.86545482322E+01  0.23167706525E+02  0.00000000000E+00 0. -1.
       -4    1    6    6    0  502  0.13710546297E+02 -0.42239979430E+02  0.75968514536E+02  0.87996648475E+02  0.00000000000E+00 0.  1.
</event>
<event>
12   0  0.1544783E-01  0.1852190E+03  0.7957747E-01  0.1168640E+00
       -1   -1    0    0    0  501  0.00000000000E+00  0.00000000000E+00  0.67315861539E+02  0.67315861539E+02  0.00000000000E+00 0.  1.
        1   -1    0    0  502    0  0.00000000000E+00  0.00000000000E+00 -0.54803148844E+03  0.54803148844E+03  0.00000000000E+00 0. -1.
        6    2    1    2  502    0  0.53285502469E+02  0.37698270686E+02 -0.32222324148E+03  0.37183801371E+03  0.17371006507E+03 0.  0.
       24    2    3    3    0    0 -0.20687245896E+01  0.64643005549E+02 -0.27636339108E+03  0.29492686323E+03  0.80138211464E+02 0.  0.
       -6    2    1    2    0  501 -0.53285502469E+02 -0.37698270686E+02 -0.15849238543E+03  0.24350933627E+03  0.17296374252E+03 0.  0.
      -24    2    5    5    0    0  0.67753945712E+01 -0.39009241052E+02 -0.22435079428E+02  0.94705067137E+02  0.83054741546E+02 0.  0.
        5    1    3    3  502    0  0.55354227059E+02 -0.26944734864E+02 -0.45859850397E+02  0.76911150483E+02  0.47000000000E+01 0. -1.
        4    1    4    4  503    0  0.15465960486E+02  0.22735530530E+02 -0.22367322502E+03  0.22535707637E+03  0.00000000000E+00 0. -1.
       -3    1    4    4    0  503 -0.17534685076E+02  0.41907475020E+02 -0.52690166062E+02  0.69569786854E+02  0.00000000000E+00 0.  1.
       -5    1    5    5    0  501 -0.60060897040E+02  0.13109703666E+01 -0.13605730600E+03  0.14880426913E+03  0.47000000000E+01 0.  1.
       13    1    6    6    0    0  0.18396725309E+02  0.33241080885E+01 -0.42505596634E+02  0.46435061559E+02  0.00000000000E+00 0. -1.
      -14    1    6    6    0    0 -0.11621330738E+02 -0.42333349141E+02  0.20070517206E+02  0.48270005578E+02  0.00000000000E+00 0.  1.
</event>
<event>
12   0  0.1544783E-01  0.2005376E+03  0.7957747E-01  0.1155547E+00
       21   -1    0    0  504  503  0.00000000000E+00  0.00000000000E+00  0.17773901331E+03  0.17773901331E+03  0.00000000000E+00 0.  1.
       21   -1    0    0  501  504  0.00000000000E+00  0.00000000000E+00 -0.30180277654E+03  0.30180277654E+03  0.00000000000E+00 0.  1.
        6    2    1    2  501    0  0.71042893817E+02 -0.71005525950E+02 -0.18395056560E+03  0.27212704837E+03  0.17356970472E+03 0.  0.
       24    2    3    3    0    0  0.10618169754E+03 -0.15517928723E+02 -0.12918826296E+03  0.18648471793E+03  0.81065305345E+02 0.  0.
       -6    2    1    2    0  503 -0.71042893817E+02  0.71005525950E+02  0.59886802373E+02  0.20741474147E+03  0.17130548271E+03 0.  0.
      -24    2    5    5    0    0 -0.57184099588E+01  0.30847226657E+01 -0.25716863832E+02  0.80015364012E+02  0.75490964137E+02 0.  0.
        5    1    3    3  501    0 -0.35138803725E+02 -0.55487597227E+02 -0.54762302644E+02  0.85642330445E+02  0.47000000000E+01 0. -1.
        2    1    4    4  502    0  0.65696702317E+02  0.20253251649E+02 -0.10888391770E+03  0.12877095337E+03  0.00000000000E+00 0. -1.
       -1    1    4    4    0  502  0.40484995225E+02 -0.35771180372E+02 -0.20304345258E+02  0.57713764562E+02  0.00000000000E+00 0.  1.
       -5    1    5    5    0  503 -0.65324483858E+02  0.67920803285E+02  0.85603666205E+02  0.12739937746E+03  0.47000000000E+01 0.  1.
       13    1    6    6    0    0 -0.20487688476E+01 -0.23520297230E+02  0.17323409256E+02  0.29283140949E+02  0.00000000000E+00 0. -1.
      -14    1    6    6    0    0 -0.36696411112E+01  0.26605019895E+02 -0.43040273088E+02  0.50732223064E+02  0.00000000000E+00 0.  1.
</event>
<event>
12   0  0.1544783E-01  0.1862171E+03  0.7957747E-01  0.1167746E+00
       21   -1    0    0  504  503  0.00000000000E+00  0.00000000000E+00  0.28351549474E+03  0.28351549474E+03  0.00000000000E+00 0. -1.
       21   -1    0    0  501  504  0.00000000000E+00  0.00000000000E+00 -0.12987833371E+03  0.12987833371E+03  0.00000000000E+00 0. -1.
        6    2    1    2  501    0  0.62820220167E+01 -0.56628786576E+02  0.19615887178E+02  0.18724743656E+03  0.17728659340E+03 0.  0.
       24    2    3    3    0    0  0.49743629336E+02 -0.90029542143E+02  0.27812457132E+01  0.12971468991E+03  0.78983658650E+02 0.  0.
       -6    2    1    2    0  503 -0.62820220167E+01  0.56628786576E+02  0.13402127385E+03  0.22614639189E+03  0.17301504400E+03 0.  0.
      -24    2    5    5    0    0  0.31459796735E+02 -0.65543526836E+01  0.17991369391E+02  0.88663364947E+02  0.80652492593E+02 0.  0.
        5    1    3    3  501    0 -0.43461607319E+02  0.33400755567E+02  0.16834641464E+02  0.57532746644E+02  0.47000000000E+01 0. -1.
        4    1    4    4  502    0 -0.20638183289E+01 -0.31613222171E+02  0.33226319219E+02  0.45909078089E+02  0.00000000000E+00 0. -1.
       -3    1    4    4    0  502  0.51807447665E+02 -0.58416319972E+02 -0.30445073506E+02  0.83805611825E+02  0.00000000000E+00 0.  1.
       -5    1    5    5    0  503 -0.37741818752E+02  0.63183139259E+02  0.11602990446E+03  0.13748302695E+03  0.47000000000E+01 0.  1.
       13    1    6    6    0    0 -0.88920390996E+01  0.17345631086E+01  0.40650859362E+02  0.41648162449E+02  0.00000000000E+00 0. -1.
      -14    1    6    6    0    0  0.40351835834E+02 -0.82889157922E+01 -0.22659489970E+02  0.47015202498E+02  0.00000000000E+00 0.  1.
</event>
<event>
12   0  0.1544783E-01  0.1878257E+03  0.7957747E-01  0.1166316E+00
       21   -1    0    0  501  503  0.00000000000E+00  0.00000000000E+00  0.76882841510E+03  0.76882841510E+03  0.00000000000E+00 0. -1.
       21   -1    0    0  503  504  0.00000000000E+00  0.00000000000E+00 -0.46808646704E+02  0.46808646704E+02  0.00000000000E+00 0. -1.
        6    2    1    2  501    0 -0.29742990809E+02  0.66009292450E+02  0.30186570484E+03  0.35552975168E+03  0.17331078553E+03 0.  0.
       24    2    3    3    0    0  0.47643381404E+02  0.13202436038E+02  0.15446156928E+03  0.18080916369E+03  0.79933604829E+02 0.  0.
       -6    2    1    2    0  504  0.29742990809E+02 -0.66009292450E+02  0.42015406356E+03  0.46010731012E+03  0.17299545518E+03 0.  0.
      -24    2    5    5    0    0 -0.95150516557E+01 -0.92159192928E+02  0.37449269986E+03  0.39428891355E+03  0.81456197110E+02 0.  0.
        5    1    3    3  501    0 -0.77386372213E+02  0.52806856412E+02  0.14740413556E+03  0.17472058799E+03  0.47000000000E+01 0. -1.
        2    1    4    4  502    0  0.62807924205E+02  0.31111351998E+02  0.12286127377E+03  0.14144837984E+03  0.00000000000E+00 0. -1.
       -1    1    4    4    0  502 -0.15164542801E+02 -0.17908915960E+02  0.31600295510E+02  0.39360783853E+02  0.00000000000E+00 0.  1.
       -5    1    5    5    0  504  0.39258042464E+02  0.26149900478E+02  0.45661363694E+02  0.65818396574E+02  0.47000000000E+01 0.  1.
       11    1    6    6    0    0  0.24976835781E+02 -0.60100562026E+02  0.29325086882E+03  0.30038640439E+03  0.00000000000E+00 0. -1.
      -12    1    6    6    0    0 -0.34491887437E+02 -0.32058630902E+02  0.81241831044E+02  0.93902509156E+02  0.00000000000E+00 0.  1.
</event>
<event>
12   0  0.1544783E-01  0.1883681E+03  0.7957747E-01  0.1165838E+00
       21   -1    0    0  504  503  0.00000000000E+00  0.00000000000E+00  0.28766086759E+03  0.28766086759E+03  0.00000000000E+00 0. -1.
       21   -1    0    0  501  504  0.00000000000E+00  0.00000000000E+00 -0.13013662717E+03  0.13013662717E+03  0.00000000000E+00 0.  1.
        6    2    1    2  501    0 -0.23434058561E+02  0.73002695652E+02  0.21092369518E+02  0.18521163338E+03  0.16727197140E+03 0.  0.
       24    2    3    3    0    0 -0.77040551097E+02  0.32039649619E+02  0.21164740458E+02  0.11758233189E+03  0.80099144025E+02 0.  0.
       -6    2    1    2    0  503  0.23434058561E+02 -0.73002695652E+02  0.13643187090E+03  0.23258586137E+03  0.17205806822E+03 0.  0.
      -24    2    5    5    0    0 -0.43938632763E+02 -0.45867152635E+02  0.12118528037E+03  0.15822212186E+03  0.79460484064E+02 0.  0.
        5    1    3    3  501    0  0.53606492536E+02  0.40963046033E+02 -0.72370939130E-01  0.67629301489E+02  0.47000000000E+01 0. -1.
      -13    1    4    4    0    0 -0.25956746485E+02 -0.13484175185E+02 -0.22070363740E+02  0.36642552096E+02  0.00000000000E+00 0.  1.
       14    1    4    4    0    0 -0.51083804613E+02  0.45523824803E+02  0.43235104198E+02  0.80939779796E+02  0.00000000000E+00 0. -1.
       -5    1    5    5    0  503  0.67372691325E+02 -0.27135543017E+02  0.15246590524E+02  0.74363739509E+02  0.47000000000E+01 0.  1.
        3    1    6    6  502    0 -0.23314594171E+02 -0.37286461695E+02  0.12761330208E+03  0.13497779593E+03  0.00000000000E+00 0. -1.
       -4    1    6    6    0  502 -0.20624038592E+02 -0.85806909399E+01 -0.64280217069E+01  0.23244325930E+02  0.00000000000E+00 0.  1.
</event>
<event>
12   0  0.1544783E-01  0.1836058E+03  0.7957747E-01  0.1170100E+00
       21   -1    0    0  501  503  0.00000000000E+00  0.00000000000E+00  0.78192130164E+02  0.78192130164E+02  0.00000000000E+00 0.  1.
       21   -1    0    0  503  504  0.00000000000E+00  0.00000000000E+00 -0.42343750461E+03  0.42343750461E+03  0.00000000000E+00 0.  1.
        6    2    1    2  501    0  0.58584610525E+02  0.12127423780E+02 -0.16527106459E+03  0.24452683215E+03  0.16999887015E+03 0.  0.
       24    2    3    3    0    0  0.68270575604E+02 -0.38119289254E+02 -0.60352192837E+02  0.12769956761E+03  0.80937263856E+02 0.  0.
       -6    2    1    2    0  504 -0.58584610525E+02 -0.12127423780E+02 -0.17997430986E+03  0.25710280263E+03  0.17358533323E+03 0.  0.
      -24    2    5    5    0    0  0.84858680100E+01  0.46997157486E+02 -0.91619657659E+02  0.13131409182E+03  0.81046198392E+02 0.  0.
        5    1    3    3  501    0 -0.96859650785E+01  0.50246713034E+02 -0.10491887175E+03  0.11682726454E+03  0.47000000000E+01 0. -1.
      -11    1    4    4    0    0  0.53078099675E+02 -0.22423269007E+02 -0.79816375636E+02  0.98441563772E+02  0.00000000000E+00 0.  1.
       12    1    4    4    0    0  0.15192475929E+02 -0.15696020247E+02  0.19464182799E+02  0.29258003836E+02  0.00000000000E+00 0. -1.
       -5    1    5    5    0  504 -0.67070478536E+02 -0.59124581266E+02 -0.88354652202E+02  0.12578871081E+03  0.47000000000E+01 0.  1.
        3    1    6    6  502    0  0.11590001192E+02 -0.21928412459E+02 -0.19946823665E+02  0.31828590527E+02  0.00000000000E+00 0. -1.
       -4    1    6    6    0  502 -0.31041331819E+01  0.68925569945E+02 -0.71672833994E+02  0.99485501294E+02  0.00000000000E+00 0.  1.
</event>
<event>
12   0  0.1544783E-01  0.1972073E+03  0.7957747E-01  0.1158282E+00
       21   -1    0    0  501  503  0.00000000000E+00  0.00000000000E+00  0.36844894538E+03  0.36844894538E+03  0.00000000000E+00 0.  1.
       21   -1    0    0  503  504  0.00000000000E+00  0.00000000000E+00 -0.12703959595E+03  0.12703959595E+03  0.00000000000E+00 0.  1.
        6    2    1    2  501    0  0.19180253538E+02  0.84691692013E+02  0.22771525519E+03  0.30123900782E+03  0.17705970057E+03 0.  0.
       24    2    3    3    0    0  0.52854120834E+02  0.11592982891E+03  0.17940530519E+03  0.23441317595E+03  0.80808354824E+02 0.  0.
       -6    2    1    2    0  504 -0.19180253538E+02 -0.84691692013E+02  0.13694094241E+02  0.19424953351E+03  0.17321890263E+03 0.  0.
      -24    2    5    5    0    0  0.15248709033E+02  0.19195012873E+02 -0.40329554714E+01  0.83280442282E+02  0.79488336820E+02 0.  0.
        5    1    3    3  501    0 -0.33673867295E+02 -0.31238136902E+02  0.48309949996E+02  0.66825831864E+02  0.47000000000E+01 0. -1.
      -13    1    4    4    0    0 -0.19543238283E+01  0.90268954718E+02  0.11081380036E+03  0.14294055379E+03  0.00000000000E+00 0.  1.
       14    1    4    4    0    0  0.54808444662E+02  0.25660874197E+02  0.68591504834E+02  0.91472622167E+02  0.00000000000E+00 0. -1.
       -5    1    5    5    0  504 -0.34428962571E+02 -0.10388670489E+03  0.17727049712E+02  0.11096909122E+03  0.47000000000E+01 0.  1.
        1    1    6    6  502    0 -0.24548973033E+02  0.32822062789E+02  0.33314761132E+00  0.40988423610E+02  0.00000000000E+00 0. -1.
       -2    1    6    6    0  502  0.39797682066E+02 -0.13627049916E+02 -0.43661030827E+01  0.42292018672E+02  0.00000000000E+00 0.  1.
</event>
<event>
12   0  0.1544783E-01  0.1983949E+03  0.7957747E-01  0.1157300E+00
       -2   -1    0    0    0  501  0.00000000000E+00  0.00000000000E+00  0.15326928706E+03  0.15326928706E+03  0.00000000000E+00 0.  1.
        2   -1    0    0  502    0  0.00000000000E+00  0.00000000000E+00 -0.43214758437E+03  0.43214758437E+03  0.00000000000E+00 0. -1.
        6    2    1    2  502    0 -0.25236997214E+01 -0.10044328621E+03 -0.32525822934E+03  0.38022248296E+03  0.16935465153E+03 0.  0.
       24    2    3    3    0    0 -0.29769619163E+02  0.36776362958E+01 -0.11030685869E+03  0.13978602904E+03  0.80453561811E+02 0.  0.
       -6    2    1    2    0  501  0.25236997214E+01  0.10044328621E+03  0.46379932027E+02  0.20519438847E+03  0.17279588004E+03 0.  0.
      -24    2    5    5    0    0 -0.87589865533E+01 -0.12046721783E+02  0.41314090095E+02  0.91928975993E+02  0.80760381596E+02 0.  0.
        5    1    3    3  502    0  0.27245919442E+02 -0.10412092251E+03 -0.21495137065E+03  0.24043645392E+03  0.47000000000E+01 0. -1.
      -13    1    4    4    0    0  0.57023159464E+01  0.47523284071E+01  0.11069514048E+02  0.13327984608E+02  0.00000000000E+00 0.  1.
       14    1    4    4    0    0 -0.35471935110E+02 -0.10746921112E+01 -0.12137637274E+03  0.12645804444E+03  0.00000000000E+00 0. -1.
       -5    1    5    5    0  501  0.11282686275E+02  0.11249000800E+03  0.50658419328E+01  0.11326541247E+03  0.47000000000E+01 0.  1.
        1    1    6    6  503    0  0.15266928268E+02 -0.28059786961E+02  0.52094663684E+02  0.61108794190E+02  0.00000000000E+00 0. -1.
       -2    1    6    6    0  503 -0.24025914821E+02  0.16013065179E+02 -0.10780573589E+02  0.30820181803E+02  0.00000000000E+00 0.  1.
</event>
<event>
12   0  0.1544783E-01  0.1917277E+03  0.7957747E-01  0.1162913E+00
       21   -1    0    0  504  503  0.00000000000E+00  0.00000000000E+00  0.12285919820E+04  0.12285919820E+04  0.00000000000E+00 0.  1.
       21   -1    0    0  501  504  0.00000000000E+00  0.00000000000E+00 -0.45043839808E+02  0.45043839808E+02  0.00000000000E+00 0. -1.
        6    2    1    2  501    0 -0.52555982518E+02 -0.63665504046E+02  0.21991732753E+03  0.29111669116E+03  0.17195891725E+03 0.  0.
       24    2    3    3    0    0 -0.50797485560E+02 -0.41096767692E+02  0.24006612410E+03  0.26044905064E+03  0.77023601485E+02 0.  0.
       -6    2    1    2    0  503  0.52555982518E+02  0.63665504046E+02  0.96363081469E+03  0.98251913067E+03  0.17304354197E+03 0.  0.
      -24    2    5    5    0    0  0.54014229820E+02  0.98181708693E+02  0.53377321340E+03  0.55124990820E+03  0.80033949045E+02 0.  0.
        5    1    3    3  501    0 -0.17584969583E+01 -0.22568736354E+02 -0.20148796567E+02  0.30667640523E+02  0.47000000000E+01 0. -1.
      -11    1    4    4    0    0 -0.63236826750E+02 -0.64848056685E+01  0.16595871210E+03  0.17771674958E+03  0.00000000000E+00 0.  1.
       12    1    4    4    0    0  0.12439341191E+02 -0.34611962024E+02  0.74107412001E+02  0.82732301055E+02  0.00000000000E+00 0. -1.
       -5    1    5    5    0  503 -0.14582473018E+01 -0.34516204647E+02  0.42985760129E+03  0.43126922247E+03  0.47000000000E+01 0.  1.
        3    1    6    6  502    0  0.38591576458E+02  0.14651584218E+02  0.84814689648E+02  0.94326614875E+02  0.00000000000E+00 0. -1.
       -4    1    6    6    0  502  0.15422653361E+02  0.83530124475E+02  0.44895852375E+03  0.45692329332E+03  0.00000000000E+00 0.  1.
</event>
<event>
12   0  0.1544783E-01  0.1774938E+03  0.7957747E-01  0.1175783E+00
       -1   -1    0    0    0  501  0.00000000000E+00  0.00000000000E+00  0.13135269862E+03  0.13135269862E+03  0.00000000000E+00 0.  1.
        1   -1    0    0  502    0  0.00000000000E+00  0.00000000000E+00 -0.27634363167E+03  0.27634363167E+03  0.00000000000E+00 0. -1.
        6    2    1    2  502    0 -0.30681420338E+01 -0.39735604758E+02 -0.14647614255E+03  0.22990316595E+03  0.17266115254E+03 0.  0.
       24    2    3    3    0    0 -0.40353438726E+02 -0.54766471480E+02 -0.30538760455E+02  0.10710378944E+03  0.76881983629E+02 0.  0.
       -6    2    1    2    0  501  0.30681420338E+01  0.39735604758E+02  0.14852095036E+01  0.17779316434E+03  0.17326243580E+03 0.  0.
      -24    2    5    5    0    0  0.22589180704E+02  0.69948942659E+02 -0.43649239132E+02  0.11988698858E+03  0.84050629327E+02 0.  0.
        5    1    3    3  502    0  0.37285296692E+02  0.15030866723E+02 -0.11593738210E+03  0.12279937651E+03  0.47000000000E+01 0. -1.
      -13    1    4    4    0    0  0.17693640328E+02 -0.32617026761E+02 -0.24968063755E+02  0.44725155679E+02  0.00000000000E+00 0.  1.
       14    1    4    4    0    0 -0.58047079054E+02 -0.22149444719E+02 -0.55706967004E+01  0.62378633761E+02  0.00000000000E+00 0. -1.
       -5    1    5    5    0  501 -0.19521038671E+02 -0.30213337901E+02  0.45134448635E+02  0.57906175763E+02  0.47000000000E+01 0.  1.
        1    1    6    6  503    0  0.41045177860E+02  0.69009502129E+01 -0.33469546347E+02  0.53409177789E+02  0.00000000000E+00 0. -1.
       -2    1    6    6    0  503 -0.18455997156E+02  0.63047992446E+02 -0.10179692785E+02  0.66477810792E+02  0.00000000000E+00 0.  1.
</event>
<event>
12   0  0.1544783E-01  0.2664135E+03  0.7957747E-01  0.1111049E+00
       21   -1    0    0  501  503  0.00000000000E+00  0.00000000000E+00  0.29545909832E+03  0.29545909832E+03  0.00000000000E+00 0. -1.
       21   -1    0    0  503  504  0.00000000000E+00  0.00000000000E+00 -0.25259108782E+03  0.25259108782E+03  0.00000000000E+00 0.  1.
        6    2    1    2  501    0 -0.17431318204E+03 -0.10459447490E+03  0.82234347090E+02  0.27881646245E+03  0.17219478006E+03 0.  0.
       24    2    3    3    0    0 -0.16634890821E+03 -0.13212783705E+03  0.98688509732E+02  0.24543465368E+03  0.73273615224E+02 0.  0.
       -6    2    1    2    0  504  0.17431318204E+03  0.10459447490E+03 -0.39366336583E+02  0.26923372369E+03  0.17208137581E+03 0.  0.
      -24    2    5    5    0    0  0.38205583807E+02  0.70833041545E+02  0.24104117199E+02  0.11523469388E+03  0.78873568437E+02 0.  0.
        5    1    3    3  501    0 -0.79642738357E+01  0.27533362148E+02 -0.16454162642E+02  0.33381808776E+02  0.47000000000E+01 0. -1.
      -13    1    4    4    0    0 -0.22675795514E+02 -0.11486137837E+02 -0.11459247669E+02  0.27882564835E+02  0.00000000000E+00 0.  1.
       14    1    4    4    0    0 -0.14367311269E+03 -0.12064169921E+03  0.11014775740E+03  0.21755208884E+03  0.00000000000E+00 0. -1.
       -5    1    5    5    0  504  0.13610759824E+03  0.33761433353E+02 -0.63470453783E+02  0.15399902981E+03  0.47000000000E+01 0.  1.
        3    1    6    6  502    0  0.27670029296E+02  0.76190701599E+01  0.39977117457E+02  0.49212302035E+02  0.00000000000E+00 0. -1.
       -4    1    6    6    0  502  0.10535554511E+02  0.63213971385E+02 -0.15873000258E+02  0.66022391840E+02  0.00000000000E+00 0.  1.
</event>
<event>
12   0  0.1544783E-01  0.2274358E+03  0.7957747E-01  0.1135397E+00
       21   -1    0    0  504  503  0.00000000000E+00  0.00000000000E+00  0.44782904765E+03  0.44782904765E+03  0.00000000000E+00 0. -1.
       21   -1    0    0  501  504  0.00000000000E+00  0.00000000000E+00 -0.12703536045E+03  0.12703536045E+03  0.00000000000E+00 0.  1.
        6    2    1    2  501    0  0.80351138339E+02 -0.11951525002E+03  0.25360723878E+03  0.34065180801E+03  0.17603074254E+03 0.  0.
       24    2    3    3    0    0  0.74326993029E+02 -0.72984457369E+01  0.96078594565E+02  0.14708976308E+03  0.82622835019E+02 0.  0.
       -6    2    1    2    0  503 -0.80351138339E+02  0.11951525002E+03  0.67186448413E+02  0.23421260009E+03  0.17205034953E+03 0.  0.
      -24    2    5    5    0    0 -0.69839974680E+02  0.80475576813E+02 -0.24238384012E+02  0.13413677569E+03  0.77789683164E+02 0.  0.
        5    1    3    3  501    0  0.60241453097E+01 -0.11221680428E+03  0.15752864421E+03  0.19356204493E+03  0.47000000000E+01 0. -1.
      -13    1    4    4    0    0  0.49590743025E+02 -0.39983862027E+02  0.32684065937E+02  0.71597480281E+02  0.00000000000E+00 0.  1.
       14    1    4    4    0    0  0.24736250004E+02  0.32685416290E+02  0.63394528628E+02  0.75492282799E+02  0.00000000000E+00 0. -1.
       -5    1    5    5    0  503 -0.10511163659E+02  0.39039673203E+02  0.91424832425E+02  0.10007582440E+03  0.47000000000E+01 0.  1.
        1    1    6    6  502    0 -0.11629438254E+02  0.57072907466E+02 -0.38471056306E+02  0.69803887958E+02  0.00000000000E+00 0. -1.
       -2    1    6    6    0  502 -0.58210536425E+02  0.23402669347E+02  0.14232672294E+02  0.64332887733E+02  0.00000000000E+00 0.  1.
</event>
<event>
12   0  0.1544783E-01  0.1750065E+03  0.7957747E-01  0.1178169E+00
       21   -1    0    0  504  503  0.00000000000E+00  0.00000000000E+00  0.63595422758E+03  0.63595422758E+03  0.00000000000E+00 0.  1.
       21   -1    0    0  501  504  0.00000000000E+00  0.00000000000E+00 -0.69312596253E+02  0.69312596253E+02  0.00000000000E+00 0.  1.
        6    2    1    2  501    0  0.10280746325E+02 -0.24610767260E+02  0.88224692722E+02  0.19584553018E+03  0.17280188563E+03 0.  0.
       24    2    3    3    0    0 -0.13858104878E+02 -0.26713947848E+02 -0.16386343087E+02  0.88362199759E+02  0.81447431058E+02 0.  0.
       -6    2    1    2    0  503 -0.10280746325E+02  0.24610767260E+02  0.47841693861E+03  0.50942129365E+03  0.17296214519E+03 0.  0.
      -24    2    5    5    0    0  0.20566286324E+02 -0.47055962252E+02  0.23440855361E+03  0.25319904346E+03  0.80778399890E+02 0.  0.
        5    1    3    3  501    0  0.24138851203E+02  0.21031805881E+01  0.10461103581E+03  0.10748333042E+03  0.47000000000E+01 0. -1.
        2    1    4    4  502    0 -0.28436984973E+02 -0.27010467147E+00 -0.40660559458E+02  0.49618707826E+02  0.00000000000E+00 0. -1.
       -1    1    4    4    0  502  0.14578880095E+02 -0.26443843177E+02  0.24274216371E+02  0.38743491933E+02  0.00000000000E+00 0.  1.
       -5    1    5    5    0  503 -0.30847032649E+02  0.71666729512E+02  0.24400838500E+03  0.25622225019E+03  0.47000000000E+01 0.  1.
       11    1    6    6    0    0  0.46577304979E+01 -0.22690507704E+02  0.73765787834E+01  0.24309823278E+02  0.00000000000E+00 0. -1.
      -12    1    6    6    0    0  0.15908555826E+02 -0.24365454548E+02  0.22703197482E+03  0.22888922018E+03  0.00000000000E+00 0.  1.
</event>
<event>
12   0  0.1544783E-01  0.2716524E+03  0.7957747E-01  0.1108124E+00
       21   -1    0    0  501  503  0.00000000000E+00  0.00000000000E+00  0.17851657455E+03  0.17851657455E+03  0.00000000000E+00 0.  1.
       21   -1    0    0  503  504  0.00000000000E+00  0.00000000000E+00 -0.78296847078E+03  0.78296847078E+03  0.00000000000E+00 0.  1.
        6    2    1    2  501    0  0.15960409914E+03  0.10600482119E+03  0.33059597508E+02  0.27365668791E+03  0.19257350616E+03 0.  0.
       24    2    3    3    0    0  0.67982506647E+02  0.31042452751E+02  0.89475930110E+02  0.14243639422E+03  0.81834767950E+02 0.  0.
       -6    2    1    2    0  504 -0.15960409914E+03 -0.10600482119E+03 -0.63751149374E+03  0.68782835742E+03  0.17313709609E+03 0.  0.
      -24    2    5    5    0    0 -0.73288730101E+01 -0.33340444389E+02 -0.21380272559E+03  0.23173728499E+03  0.82615169134E+02 0.  0.
        5    1    3    3  501    0  0.91621592489E+02  0.74962368443E+02 -0.56416332602E+02  0.13122029369E+03  0.47000000000E+01 0. -1.
        2    1    4    4  502    0  0.59626551831E+02  0.41595177723E+01  0.13311484807E+02  0.61235797530E+02  0.00000000000E+00 0. -1.
       -1    1    4    4    0  502  0.83559548159E+01  0.26882934979E+02  0.76164445303E+02  0.81200596687E+02  0.00000000000E+00 0.  1.
       -5    1    5    5    0  504 -0.15227522613E+03 -0.72664376805E+02 -0.42370876814E+03  0.45609107243E+03  0.47000000000E+01 0.  1.
       11    1    6    6    0    0  0.21544322864E+02 -0.41881205767E+02 -0.18177937576E+03  0.18778161437E+03  0.00000000000E+00 0. -1.
      -12    1    6    6    0    0 -0.28873195875E+02  0.85407613782E+01 -0.32023349837E+02  0.43955670621E+02  0.00000000000E+00 0.  1.
</event>
<event>
12   0  0.1544783E-01  0.2089441E+03  0.7957747E-01  0.1148895E+00
       21   -1    0    0  501  503  0.00000000000E+00  0.00000000000E+00  0.20103679305E+03  0.20103679305E+03  0.00000000000E+00 0.  1.
       21   -1    0    0  503  504  0.00000000000E+00  0.00000000000E+00 -0.34808396013E+03  0.34808396013E+03  0.00000000000E+00 0.  1.
        6    2    1    2  501    0 -0.64379945220E+02  0.95602309929E+02  0.95558801195E+02  0.22975884327E+03  0.17427869223E+03 0.  0.
       24    2    3    3    0    0 -0.44230424468E+01  0.11320331627E+03  0.93711043974E+02  0.16706809578E+03  0.79343775717E+02 0.  0.
       -6    2    1    2    0  504  0.64379945220E+02 -0.95602309929E+02 -0.24260596827E+03  0.31936190991E+03  0.17277093115E+03 0.  0.
      -24    2    5    5    0    0 -0.20456758531E+01 -0.11199431569E+03 -0.17671464310E+03  0.22425766331E+03  0.80724983318E+02 0.  0.
        5    1    3    3  501    0 -0.59956902773E+02 -0.17601006343E+02  0.18477572208E+01  0.62690747493E+02  0.47000000000E+01 0. -1.
        4    1    4    4  502    0  0.29130844224E+02  0.41105246131E+02  0.65617863434E+02  0.82728177463E+02  0.00000000000E+00 0. -1.
       -3    1    4    4    0  502 -0.33553886671E+02  0.72098070141E+02  0.28093180540E+02  0.84339918316E+02  0.00000000000E+00 0.  1.
       -5    1    5    5    0  504  0.66425621073E+02  0.16392005761E+02 -0.65891325174E+02  0.95104246598E+02  0.47000000000E+01 0.  1.
       13    1    6    6    0    0 -0.17338399245E+02 -0.55315776430E+02 -0.28004323133E+02  0.64379323735E+02  0.00000000000E+00 0. -1.
      -14    1    6    6    0    0  0.15292723392E+02 -0.56678539260E+02 -0.14871031997E+03  0.15987833958E+03  0.00000000000E+00 0.  1.
</event>
<event>
12   0  0.1544783E-01  0.1962137E+03  0.7957747E-01  0.1159109E+00
       21   -1    0    0  501  503  0.00000000000E+00  0.00000000000E+00  0.37627374614E+03  0.37627374614E+03  0.00000000000E+00 0. -1.
       21   -1    0    0  503  504  0.00000000000E+00  0.00000000000E+00 -0.13219181395E+03  0.13219181395E+03  0.00000000000E+00 0.  1.
        6    2    1    2  501    0  0.50579598330E+02  0.73011737197E+02 -0.35283358008E-01  0.19621370692E+03  0.17495944674E+03 0.  0.
       24    2    3    3    0    0  0.15635817252E+02 -0.29717551354E+02 -0.71692864750E+01  0.87368134833E+02  0.80337915557E+02 0.  0.
       -6    2    1    2    0  504 -0.50579598330E+02 -0.73011737197E+02  0.24411721555E+03  0.31225185317E+03  0.17325990691E+03 0.  0.
      -24    2    5    5    0    0 -0.37886166839E+02  0.20017252033E+02  0.16769703607E+03  0.19110050207E+03  0.81000333142E+02 0.  0.
        5    1    3    3  501    0  0.34943781078E+02  0.10272928855E+03  0.71340031170E+01  0.10884557209E+03  0.47000000000E+01 0. -1.
        4    1    4    4  502    0  0.37318046699E+02 -0.33332510251E+02  0.18703550950E+02  0.53418308353E+02  0.00000000000E+00 0. -1.
       -3    1    4    4    0  502 -0.21682229447E+02  0.36149588973E+01 -0.25872837425E+02  0.33949826481E+02  0.00000000000E+00 0.  1.
       -5    1    5    5    0  504 -0.12693431491E+02 -0.93028989230E+02  0.76420179480E+02  0.12115135109E+03  0.47000000000E+01 0.  1.
       13    1    6    6    0    0  0.17109035504E+02  0.31127245453E+02  0.63625211774E+02  0.72868320131E+02  0.00000000000E+00 0. -1.
      -14    1    6    6    0    0 -0.54995202343E+02 -0.11109993420E+02  0.10407182429E+03  0.11823218194E+03  0.00000000000E+00 0.  1.
</event>
<event>
12   0  0.1544783E-01  0.2162244E+03  0.7957747E-01  0.1143405E+00
       21   -1    0    0  504  503  0.00000000000E+00  0.00000000000E+00  0.97627345682E+02  0.97627345682E+02  0.00000000000E+00 0.  1.
       21   -1    0    0  501  504  0.00000000000E+00  0.00000000000E+00 -0.47871317227E+03  0.47871317227E+03  0.00000000000E+00 0.  1.
        6    2    1    2  501    0  0.11126844754E+03  0.68475237789E+02 -0.18717588854E+03  0.28590285169E+03  0.17215139194E+03 0.  0.
       24    2    3    3    0    0  0.12523389582E+03  0.17743117695E+02 -0.17709032687E+03  0.23212004488E+03  0.80748897670E+02 0.  0.
       -6    2    1    2    0  503 -0.11126844754E+03 -0.68475237789E+02 -0.19390993805E+03  0.29043766626E+03  0.17228885136E+03 0.  0.
      -24    2    5    5    0    0 -0.10743251179E+03  0.64708108146E+01 -0.15862626054E+03  0.20737953901E+03  0.79122479004E+02 0.  0.
        5    1    3    3  501    0 -0.13965448276E+02  0.50732120094E+02 -0.10085561673E+02  0.53782806817E+02  0.47000000000E+01 0. -1.
        4    1    4    4  502    0  0.82520384124E+02 -0.85038022100E+01 -0.53406246853E+02  0.98661824689E+02  0.00000000000E+00 0. -1.
       -3    1    4    4    0  502  0.42713511693E+02  0.26246919905E+02 -0.12368408002E+03  0.13345822019E+03  0.00000000000E+00 0.  1.
       -5    1    5    5    0  503 -0.38359357480E+01 -0.74946048604E+02 -0.35283677506E+02  0.83058127253E+02  0.47000000000E+01 0.  1.
       11    1    6    6    0    0 -0.13978712592E+02  0.21510825088E+02 -0.80994489062E+02  0.84960151013E+02  0.00000000000E+00 0. -1.
      -12    1    6    6    0    0 -0.93453799202E+02 -0.15040014274E+02 -0.77631771481E+02  0.12241938800E+03  0.00000000000E+00 0.  1.
</event>
<event>
12   0  0.1544783E-01  0.1749512E+03  0.7957747E-01  0.1178222E+00
        1   -1    0    0  502    0  0.00000000000E+00  0.00000000000E+00  0.10558436114E+04  0.10558436114E+04  0.00000000000E+00 0.  1.
       -1   -1    0    0    0  501  0.00000000000E+00  0.00000000000E+00 -0.47227068381E+02  0.47227068381E+02  0.00000000000E+00 0. -1.
        6    2    1    2  502    0 -0.73809601347E+01  0.27271317782E+02  0.84545060103E+03  0.86318132954E+03  0.17174715587E+03 0.  0.
       24    2    3    3    0    0 -0.53889813099E+02 -0.90112729377E+01  0.31882988404E+03  0.33324645680E+03  0.80096136079E+02 0.  0.
       -6    2    1    2    0  501  0.73809601347E+01 -0.27271317782E+02  0.16316594199E+03  0.23988935023E+03  0.17356719847E+03 0.  0.
      -24    2    5    5    0    0  0.44257940136E+01  0.36877725703E+02  0.33584609973E+02  0.95192272193E+02  0.80957324267E+02 0.  0.
        5    1    3    3  502    0  0.46508852965E+02  0.36282590720E+02  0.52662071699E+03  0.52993487275E+03  0.47000000000E+01 0. -1.
        4    1    4    4  503    0 -0.74462328421E+02 -0.12373857025E+02  0.23302271530E+03  0.24494353744E+03  0.00000000000E+00 0. -1.
       -3    1    4    4    0  503  0.20572515322E+02  0.33625840870E+01  0.85807168743E+02  0.88302919352E+02  0.00000000000E+00 0.  1.
       -5    1    5    5    0  501  0.29551661211E+01 -0.64149043485E+02  0.12958133201E+03  0.14469707804E+03  0.47000000000E+01 0.  1.
       13    1    6    6    0    0  0.37740699126E+02  0.10503259968E+01  0.25614178775E+02  0.45624003655E+02  0.00000000000E+00 0. -1.
      -14    1    6    6    0    0 -0.33314905112E+02  0.35827399706E+02  0.79704311977E+01  0.49568268537E+02  0.00000000000E+00 0.  1.
</event>
<event>
12   0  0.1544783E-01  0.4253996E+03  0.7957747E-01  0.1044766E+00
        2   -1    0    0  502    0  0.00000000000E+00  0.00000000000E+00  0.86597013534E+03  0.86597013534E+03  0.00000000000E+00 0.  1.
       -2   -1    0    0    0  501  0.00000000000E+00  0.00000000000E+00 -0.24194067357E+03  0.24194067357E+03  0.00000000000E+00 0. -1.
        6    2    1    2  502    0 -0.20055413188E+03 -0.33308417858E+03  0.51644494325E+03  0.66903427716E+03  0.17240781528E+03 0.  0.
       24    2    3    3    0    0 -0.34744183865E+02 -0.77390697143E+02  0.10642927240E+03  0.15814580043E+03  0.80538350203E+02 0.  0.
       -6    2    1    2    0  501  0.20055413188E+03  0.33308417858E+03  0.10758451853E+03  0.43887653175E+03  0.17283272741E+03 0.  0.
      -24    2    5    5    0    0  0.14493175245E+03  0.31573211674E+03  0.56961137342E+02  0.36154762470E+03  0.82341552994E+02 0.  0.
        5    1    3    3  502    0 -0.16580994802E+03 -0.25569348144E+03  0.41001567085E+03  0.51088847672E+03  0.47000000000E+01 0. -1.
      -11    1    4    4    0    0 -0.24054341017E+02  0.12024988920E+02  0.23008351403E+02  0.35392031795E+02  0.00000000000E+00 0.  1.
       12    1    4    4    0    0 -0.10689842848E+02 -0.89415686063E+02  0.83420920998E+02  0.12275376864E+03  0.00000000000E+00 0. -1.
       -5    1    5    5    0  501  0.55622379429E+02  0.17352061840E+02  0.50623381184E+02  0.77328907053E+02  0.47000000000E+01 0.  1.
        1    1    6    6  503    0  0.94987566539E+02  0.27485511076E+03  0.32866441652E+02  0.29265709063E+03  0.00000000000E+00 0. -1.
       -2    1    6    6    0  503  0.49944185916E+02  0.40877005981E+02  0.24094695689E+02  0.68890534075E+02  0.00000000000E+00 0.  1.
</event>
<event>
12   0  0.1544783E-01  0.2059008E+03  0.7957747E-01  0.1151263E+00
       21   -1    0    0  504  503  0.00000000000E+00  0.00000000000E+00  0.80361315508E+02  0.80361315508E+02  0.00000000000E+00 0. -1.
       21   -1    0    0  501  504  0.00000000000E+00  0.00000000000E+00 -0.58213800099E+03  0.58213800099E+03  0.00000000000E+00 0. -1.
        6    2    1    2  501    0 -0.42323233760E+02  0.76374805604E+02 -0.36985575515E+03  0.41796249649E+03  0.17399713161E+03 0.  0.
       24    2    3    3    0    0  0.86571677499E+01  0.48751211804E+02 -0.85549483828E+02  0.12776564919E+03  0.80955047544E+02 0.  0.
       -6    2    1    2    0  503  0.42323233760E+02 -0.76374805604E+02 -0.13192093033E+03  0.24453682001E+03  0.18646918628E+03 0.  0.
      -24    2    5    5    0    0  0.51615625517E+02 -0.99773933997E+01 -0.65820161176E+00  0.97068318819E+02  0.81597206523E+02 0.  0.
        5    1    3    3  501    0 -0.50980401510E+02  0.27623593801E+02 -0.28430627132E+03  0.29019684730E+03  0.47000000000E+01 0. -1.
      -13    1    4    4    0    0 -0.30979547469E+02 -0.18257883318E-01 -0.37591101331E+02  0.48711637152E+02  0.00000000000E+00 0.  1.
       14    1    4    4    0    0  0.39636715219E+02  0.48769469687E+02 -0.47958382496E+02  0.79054012033E+02  0.00000000000E+00 0. -1.
       -5    1    5    5    0  503 -0.92923917572E+01 -0.66397412205E+02 -0.13126272872E+03  0.14746850119E+03  0.47000000000E+01 0.  1.
        1    1    6    6  502    0 -0.20416326706E+02  0.84620805229E+01  0.44285473118E+01  0.22539858790E+02  0.00000000000E+00 0. -1.
       -2    1    6    6    0  502  0.72031952224E+02 -0.18439473923E+02 -0.50867489236E+01  0.74528460029E+02  0.00000000000E+00 0.  1.
</event>
<event>
12   0  0.1544783E-01  0.1914214E+03  0.7957747E-01  0.1163177E+00
       21   -1    0    0  501  503  0.00000000000E+00  0.00000000000E+00  0.84632486558E+03  0.84632486558E+03  0.00000000000E+00 0. -1.
       21   -1    0    0  503  504  0.00000000000E+00  0.00000000000E+00 -0.47458208265E+02  0.47458208265E+02  0.00000000000E+00 0. -1.
        6    2    1    2  501    0  0.14606575466E+02 -0.78449068047E+02  0.53594088031E+03  0.56909996370E+03  0.17399578491E+03 0.  0.
       24    2    3    3    0    0  0.41864139813E+00 -0.28096970644E+02  0.18151852436E+03  0.21080688871E+03  0.10344541856E+03 0.  0.
       -6    2    1    2    0  504 -0.14606575466E+02  0.78449068047E+02  0.26292577700E+03  0.32468311014E+03  0.17297846536E+03 0.  0.
      -24    2    5    5    0    0 -0.11478530843E+02  0.19407462027E+02  0.39263137884E+02  0.93290020271E+02  0.81566093648E+02 0.  0.
        5    1    3    3  501    0  0.14187934068E+02 -0.50352097403E+02  0.35442235596E+03  0.35829307499E+03  0.47000000000E+01 0. -1.
      -13    1    4    4    0    0 -0.26874863186E+02 -0.37469375730E+02  0.17533107888E+03  0.18129313173E+03  0.00000000000E+00 0.  1.
       14    1    4    4    0    0  0.27293504584E+02  0.93724050856E+01  0.61874454724E+01  0.29513756980E+02  0.00000000000E+00 0. -1.
       -5    1    5    5    0  504 -0.31280446230E+01  0.59041606020E+02  0.22366263912E+03  0.23139308987E+03  0.47000000000E+01 0.  1.
        3    1    6    6  502    0 -0.21516548565E+02  0.40155867576E+02 -0.24601718520E+01  0.45623546645E+02  0.00000000000E+00 0. -1.
       -4    1    6    6    0  502  0.10038017721E+02 -0.20748405549E+02  0.41723309736E+02  0.47666473626E+02  0.00000000000E+00 0.  1.
</event>
<event>
12   0  0.1544783E-01  0.1912180E+03  0.7957747E-01  0.1163353E+00
       21   -1    0    0  504  503  0.00000000000E+00  0.00000000000E+00  0.50610921762E+03  0.50610921762E+03  0.00000000000E+00 0. -1.
       21   -1    0    0  501  504  0.00000000000E+00  0.00000000000E+00 -0.72521018313E+02  0.72521018313E+02  0.00000000000E+00 0. -1.
        6    2    1    2  501    0 -0.80160092247E+02 -0.20276394908E+02  0.19336475924E+03  0.27159341975E+03  0.17186123169E+03 0.  0.
       24    2    3    3    0    0 -0.17519366275E+02 -0.64788665475E+02  0.68404363980E+02  0.12482014846E+03  0.79977578622E+02 0.  0.
       -6    2    1    2    0  503  0.80160092247E+02  0.20276394908E+02  0.24022344006E+03  0.30703681618E+03  0.17241674151E+03 0.  0.
      -24    2    5    5    0    0  0.13452729533E+02 -0.89030740191E+01  0.34415417170E+02  0.88678519027E+02  0.80120023333E+02 0.  0.
        5    1    3    3  501    0 -0.62640725972E+02  0.44512270567E+02  0.12496039526E+03  0.14677327129E+03  0.47000000000E+01 0. -1.
      -13    1    4    4    0    0  0.15755512569E+01 -0.58183967191E+02  0.81933854380E+02  0.10050379542E+03  0.00000000000E+00 0.  1.
       14    1    4    4    0    0 -0.19094917532E+02 -0.66046982836E+01 -0.13529490400E+02  0.24316353046E+02  0.00000000000E+00 0. -1.
       -5    1    5    5    0  503  0.66707362714E+02  0.29179468927E+02  0.20580802289E+03  0.21835829715E+03  0.47000000000E+01 0.  1.
        3    1    6    6  502    0 -0.56121283080E+01 -0.41999884903E+02  0.25507964599E+02  0.49458493447E+02  0.00000000000E+00 0. -1.
       -4    1    6    6    0  502  0.19064857841E+02  0.33096810884E+02  0.89074525714E+01  0.39220025580E+02  0.00000000000E+00 0.  1.
</event>
<event>
12   0  0.1544783E-01  0.1880889E+03  0.7957747E-01  0.1166084E+00
       21   -1    0    0  501  503  0.00000000000E+00  0.00000000000E+00  0.34518155127E+03  0.34518155127E+03  0.00000000000E+00 0. -1.
       21   -1    0    0  503  504  0.00000000000E+00  0.00000000000E+00 -0.12397138681E+03  0.12397138681E+03  0.00000000000E+00 0. -1.
        6    2    1    2  501    0 -0.35590333670E+02  0.62518763006E+02  0.21070121839E+03  0.28077072259E+03  0.17106118103E+03 0.  0.
       24    2    3    3    0    0 -0.75840757893E+02  0.47411482395E+02  0.20437458479E+03  0.23706210936E+03  0.80186055936E+02 0.  0.
       -6    2    1    2    0  504  0.35590333670E+02 -0.62518763006E+02  0.10508946080E+02  0.18838221549E+03  0.17378766811E+03 0.  0.
      -24    2    5    5    0    0 -0.37348037053E+02  0.49721174315E+01  0.16000008044E+01  0.88499863833E+02  0.80062900724E+02 0.  0.
        5    1    3    3  501    0  0.40250424223E+02  0.15107280611E+02  0.63266335924E+01  0.43708613226E+02  0.47000000000E+01 0. -1.
      -11    1    4    4    0    0 -0.50135677321E+02  0.47213381920E+02  0.62893032289E+02  0.93264264771E+02  0.00000000000E+00 0.  1.
       12    1    4    4    0    0 -0.25705080572E+02  0.19810047573E+00  0.14148155250E+03  0.14379784459E+03  0.00000000000E+00 0. -1.
       -5    1    5    5    0  504  0.72938370723E+02 -0.67490880438E+02  0.89089452752E+01  0.99882351654E+02  0.47000000000E+01 0.  1.
        1    1    6    6  502    0 -0.62012425436E+02  0.79048263505E+01  0.75230971919E+01  0.62965261688E+02  0.00000000000E+00 0. -1.
       -2    1    6    6    0  502  0.24664388383E+02 -0.29327089190E+01 -0.59230963875E+01  0.25534602145E+02  0.00000000000E+00 0.  1.
</event>
<event>
12   0  0.1544783E-01  0.1805520E+03  0.7957747E-01  0.1172909E+00
       21   -1    0    0  501  503  0.00000000000E+00  0.00000000000E+00  0.32353696554E+03  0.32353696554E+03  0.00000000000E+00 0. -1.
       21   -1    0    0  503  504  0.00000000000E+00  0.00000000000E+00 -0.10173345425E+03  0.10173345425E+03  0.00000000000E+00 0. -1.
        6    2    1    2  501    0 -0.26486428559E+02  0.39946982161E+02  0.85972586567E+02  0.19933002579E+03  0.17333170875E+03 0.  0.
       24    2    3    3    0    0  0.43381837790E+02  0.10160854510E+02  0.79891915115E+02  0.12298965240E+03  0.82210155596E+02 0.  0.
       -6    2    1    2    0  504  0.26486428559E+02 -0.39946982161E+02  0.13583092473E+03  0.22594039400E+03  0.17407391892E+03 0.  0.
      -24    2    5    5    0    0  0.41776349281E+02 -0.87192564469E+02  0.71815424430E+02  0.14478621357E+03  0.80360349647E+02 0.  0.
        5    1    3    3  501    0 -0.69868266348E+02  0.29786127651E+02  0.60806714517E+01  0.76340373383E+02  0.47000000000E+01 0. -1.
      -13    1    4    4    0    0  0.31278747682E+02  0.32530752479E+02  0.85740306696E+02  0.96891744260E+02  0.00000000000E+00 0.  1.
       14    1    4    4    0    0  0.12103090108E+02 -0.22369897970E+02 -0.58483915813E+01  0.26097908143E+02  0.00000000000E+00 0. -1.
       -5    1    5    5    0  504 -0.15289920722E+02  0.47245582308E+02  0.64015500299E+02  0.81154180434E+02  0.47000000000E+01 0.  1.
        1    1    6    6  502    0  0.12792790046E+02 -0.40930187665E+02  0.78836565742E+02  0.89744859672E+02  0.00000000000E+00 0. -1.
       -2    1    6    6    0  502  0.28983559235E+02 -0.46262376804E+02 -0.70211413118E+01  0.55041353897E+02  0.00000000000E+00 0.  1.
</event>
<event>
12   0  0.1544783E-01  0.1757536E+03  0.7957747E-01  0.1177448E+00
       21   -1    0    0  501  503  0.00000000000E+00  0.00000000000E+00  0.57261837921E+03  0.57261837921E+03  0.00000000000E+00 0.  1.
       21   -1    0    0  503  504  0.00000000000E+00  0.00000000000E+00 -0.54648432776E+02  0.54648432776E+02  0.00000000000E+00 0.  1.
        6    2    1    2  501    0  0.23353665763E+02  0.19266150652E+02  0.22148856782E+03  0.28260679321E+03  0.17289544710E+03 0.  0.
       24    2    3    3    0    0  0.10439673182E+02  0.78437120712E+02  0.16442482564E+03  0.19926211387E+03  0.80053095232E+02 0.  0.
       -6    2    1    2    0  504 -0.23353665763E+02 -0.19266150652E+02  0.29648137861E+03  0.34466001878E+03  0.17312637700E+03 0.  0.
      -24    2    5    5    0    0 -0.22078304738E+02 -0.79175917554E+02  0.18554464658E+03  0.21848611010E+03  0.80951139411E+02 0.  0.
        5    1    3    3  501    0  0.12913992581E+02 -0.59170970061E+02  0.57063742184E+02  0.83344679341E+02  0.47000000000E+01 0. -1.
        2    1    4    4  502    0 -0.34247135108E+02  0.44824380113E+02  0.88983332444E+02  0.10535712965E+03  0.00000000000E+00 0. -1.
       -1    1    4    4    0  502  0.44686808290E+02  0.33612740599E+02  0.75441493193E+02  0.93904984217E+02  0.00000000000E+00 0.  1.
       -5    1    5    5    0  504 -0.12753610254E+01  0.59909766903E+02  0.11093673203E+03  0.12617390867E+03  0.47000000000E+01 0.  1.
       13    1    6    6    0    0  0.18261318009E+02 -0.21500620705E+01  0.66015236542E+01  0.19536596860E+02  0.00000000000E+00 0. -1.
      -14    1    6    6    0    0 -0.40339622746E+02 -0.77025855484E+02  0.17894312293E+03  0.19894951324E+03  0.00000000000E+00 0.  1.
</event>
<event>
12   0  0.1544783E-01  0.1816489E+03  0.7957747E-01  0.1171893E+00
       21   -1    0    0  504  503  0.00000000000E+00  0.00000000000E+00  0.82323946308E+02  0.82323946308E+02  0.00000000000E+00 0. -1.
       21   -1    0    0  501  504  0.00000000000E+00  0.00000000000E+00 -0.41116701978E+03  0.41116701978E+03  0.00000000000E+00 0. -1.
        6    2    1    2  501    0 -0.29291448027E+01  0.57582889313E+02 -0.20524062991E+03  0.27408037871E+03  0.17225553342E+03 0.  0.
       24    2    3    3    0    0 -0.67396346568E+02  0.41539466217E+02 -0.14856610415E+03  0.18663037357E+03  0.80568072162E+02 0.  0.
       -6    2    1    2    0  503  0.29291448027E+01 -0.57582889313E+02 -0.12360244356E+03  0.21941058738E+03  0.17186934797E+03 0.  0.
      -24    2    5    5    0    0  0.44604407826E+01  0.21075944705E+02 -0.14351206540E+02  0.84698005094E+02  0.80645545200E+02 0.  0.
        5    1    3    3  501    0  0.64467201765E+02  0.16043423096E+02 -0.56674525764E+02  0.87450005138E+02  0.47000000000E+01 0. -1.
        4    1    4    4  502    0 -0.36155265127E+02  0.48680511963E+02 -0.14131195246E+03  0.15377276531E+03  0.00000000000E+00 0. -1.
       -3    1    4    4    0  502 -0.31241081441E+02 -0.71410457464E+01 -0.72541516868E+01  0.32857608261E+02  0.00000000000E+00 0.  1.
       -5    1    5    5    0  503 -0.15312959799E+01 -0.78658834017E+02 -0.10925123702E+03  0.13471258228E+03  0.47000000000E+01 0.  1.
       11    1    6    6    0    0  0.15388048266E+02 -0.23402971339E+02  0.13500764106E+02  0.31092792226E+02  0.00000000000E+00 0. -1.
      -12    1    6    6    0    0 -0.10927607484E+02  0.44478916044E+02 -0.27851970646E+02  0.53605212868E+02  0.00000000000E+00 0.  1.
</event>
<event>
12   0  0.1544783E-01  0.1888466E+03  0.7957747E-01  0.1165417E+00
       21   -1    0    0  501  503  0.00000000000E+00  0.00000000000E+00  0.42222267548E+03  0.42222267548E+03  0.00000000000E+00 0. -1.
       21   -1    0    0  503  504  0.00000000000E+00  0.00000000000E+00 -0.11201174137E+03  0.11201174137E+03  0.00000000000E+00 0.  1.
        6    2    1    2  501    0  0.55240056032E+02 -0.50173736454E+02  0.28833594096E+03  0.34412509898E+03  0.17238213736E+03 0.  0.
       24    2    3    3    0    0  0.98225136979E+02 -0.41125129909E+02  0.25926933871E+03  0.29124266494E+03  0.79134354347E+02 0.  0.
       -6    2    1    2    0  504 -0.55240056032E+02  0.50173736454E+02  0.21874993141E+02  0.19010931786E+03  0.17347671254E+03 0.  0.
      -24    2    5    5    0    0  0.72528192269E+01  0.84298161250E+02  0.22161530351E+02  0.11875101120E+03  0.80323632000E+02 0.  0.
        5    1    3    3  501    0 -0.42985080947E+02 -0.90486065446E+01  0.29066602251E+02  0.52882434048E+02  0.47000000000E+01 0. -1.
        4    1    4    4  502    0  0.17646169335E+02 -0.48200232499E+02  0.11257857671E+03  0.12372786929E+03  0.00000000000E+00 0. -1.
       -3    1    4    4    0  502  0.80578967643E+02  0.70751025901E+01  0.14669076200E+03  0.16751479565E+03  0.00000000000E+00 0.  1.
       -5    1    5    5    0  504 -0.62492875258E+02 -0.34124424796E+02 -0.28653721062E+00  0.71358306660E+02  0.47000000000E+01 0.  1.
       13    1    6    6    0    0  0.19101470273E+02  0.21334308095E+02  0.42750505487E+02  0.51455073490E+02  0.00000000000E+00 0. -1.
      -14    1    6    6    0    0 -0.11848651046E+02  0.62963853155E+02 -0.20588975136E+02  0.67295937715E+02  0.00000000000E+00 0.  1.
</event>
<event>
12   0  0.1544783E-01  0.1823784E+03  0.7957747E-01  0.1171222E+00
       21   -1    0    0  504  503  0.00000000000E+00  0.00000000000E+00  0.15230549082E+03  0.15230549082E+03  0.00000000000E+00 0. -1.
       21   -1    0    0  501  504  0.00000000000E+00  0.00000000000E+00 -0.24043778168E+03  0.24043778168E+03  0.00000000000E+00 0. -1.
        6    2    1    2  501    0 -0.23546720767E+02 -0.40223634794E+02 -0.10916454346E+03  0.21255300219E+03  0.17632212662E+03 0.  0.
       24    2    3    3    0    0 -0.77370846868E+02 -0.35499074448E+02 -0.37746168000E+02  0.12287562280E+03  0.80169902385E+02 0.  0.
       -6    2    1    2    0  503  0.23546720767E+02  0.40223634794E+02  0.21032252594E+02  0.18019027031E+03  0.17278249046E+03 0.  0.
      -24    2    5    5    0    0  0.17131538384E+02 -0.34447992704E+02 -0.24768737992E+02  0.92231033969E+02  0.80080705769E+02 0.  0.
        5    1    3    3  501    0  0.53824126101E+02 -0.47245603466E+01 -0.71418375457E+02  0.89677379388E+02  0.47000000000E+01 0. -1.
      -11    1    4    4    0    0 -0.50479588108E+02  0.14418307755E+02 -0.40200942754E+02  0.66122554490E+02  0.00000000000E+00 0.  1.
       12    1    4    4    0    0 -0.26891258761E+02 -0.49917382202E+02  0.24547747539E+01  0.56753068311E+02  0.00000000000E+00 0. -1.
       -5    1    5    5    0  503  0.64151823828E+01  0.74671627498E+02  0.45800990586E+02  0.87959236336E+02  0.47000000000E+01 0.  1.
        3    1    6    6  502    0  0.34649516486E+02  0.11200505624E+02 -0.23462961221E+02  0.43319174371E+02  0.00000000000E+00 0. -1.
       -4    1    6    6    0  502 -0.17517978101E+02 -0.45648498328E+02 -0.13057767713E+01  0.48911859598E+02  0.00000000000E+00 0.  1.
</event>
<event>
12   0  0.1544783E-01  0.2203594E+03  0.7957747E-01  0.1140391E+00
       21   -1    0    0  504  503  0.00000000000E+00  0.00000000000E+00  0.17966937106E+03  0.17966937106E+03  0.00000000000E+00 0. -1.
       21   -1    0    0  501  504  0.00000000000E+00  0.00000000000E+00 -0.32808335643E+03  0.32808335643E+03  0.00000000000E+00 0. -1.
        6    2    1    2  501    0  0.44523010911E+02 -0.13021061399E+03 -0.18185149581E+03  0.28570654077E+03  0.17210798475E+03 0.  0.
       24    2    3    3    0    0  0.54424142364E+01 -0.78169830723E+01 -0.23053489385E+02  0.81387205488E+02  0.77470566974E+02 0.  0.
       -6    2    1    2    0  503 -0.44523010911E+02  0.13021061399E+03  0.33437510438E+02  0.22204618673E+03  0.17102438258E+03 0.  0.
      -24    2    5    5    0    0 -0.24951233832E+02  0.16041206912E+03  0.20511109573E+02  0.18351873951E+03  0.83089266119E+02 0.  0.
        5    1    3    3  501    0  0.39080596674E+02 -0.12239363092E+03 -0.15879800642E+03  0.20431933528E+03  0.47000000000E+01 0. -1.
        2    1    4    4  502    0  0.12426428969E+02  0.17588554658E+02  0.20984710786E+02  0.30068779135E+02  0.00000000000E+00 0. -1.
       -1    1    4    4    0  502 -0.69840147330E+01 -0.25405537730E+02 -0.44038200171E+02  0.51318426354E+02  0.00000000000E+00 0.  1.
       -5    1    5    5    0  503 -0.19571777079E+02 -0.30201455129E+02  0.12926400865E+02  0.38527447219E+02  0.47000000000E+01 0.  1.
       13    1    6    6    0    0 -0.72935190703E+01  0.72872111756E+02 -0.31998992563E+02  0.79921684275E+02  0.00000000000E+00 0. -1.
      -14    1    6    6    0    0 -0.17657714762E+02  0.87539957367E+02  0.52510102137E+02  0.10359705523E+03  0.00000000000E+00 0.  1.
</event>
<event>
12   0  0.1544783E-01  0.2196988E+03  0.7957747E-01  0.1140867E+00
       21   -1    0    0  501  503  0.00000000000E+00  0.00000000000E+00  0.15235428324E+03  0.15235428324E+03  0.00000000000E+00 0. -1.
       21   -1    0    0  503  504  0.00000000000E+00  0.00000000000E+00 -0.37295531524E+03  0.37295531524E+03  0.00000000000E+00 0.  1.
        6    2    1    2  501    0  0.10096301089E+03 -0.89192754761E+02 -0.75605487130E+01  0.21928048623E+03  0.17285222785E+03 0.  0.
       24    2    3    3    0    0  0.11816004412E+03 -0.10561801863E+03  0.26430061435E+02  0.17753148835E+03  0.75511054321E+02 0.  0.
       -6    2    1    2    0  504 -0.10096301089E+03  0.89192754761E+02 -0.21304048329E+03  0.30602911225E+03  0.17354737957E+03 0.  0.
      -24    2    5    5    0    0 -0.19856138396E+02  0.72295434555E+01 -0.15772998076E+03  0.17805398005E+03  0.79862008800E+02 0.  0.
        5    1    3    3  501    0 -0.17197033231E+02  0.16425263867E+02 -0.33990610148E+02  0.41748997871E+02  0.47000000000E+01 0. -1.
        4    1    4    4  502    0  0.12004073705E+03 -0.85595854640E+02  0.41128497101E+01  0.14749015024E+03  0.00000000000E+00 0. -1.
       -3    1    4    4    0  502 -0.18806929360E+01 -0.20022163988E+02  0.22317211725E+02  0.30041338117E+02  0.00000000000E+00 0.  1.
       -5    1    5    5    0  504 -0.81106872492E+02  0.81963211305E+02 -0.55310502527E+02  0.12797513220E+03  0.47000000000E+01 0.  1.
       13    1    6    6    0    0 -0.23801825267E+02  0.23243372662E+02 -0.15809472829E+03  0.16155718607E+03  0.00000000000E+00 0. -1.
      -14    1    6    6    0    0  0.39456868704E+01 -0.16013829207E+02  0.36474752811E+00  0.16496793976E+02  0.00000000000E+00 0.  1.
</event>
<event>
12   0  0.1544783E-01  0.1863206E+03  0.7957747E-01  0.1167653E+00
       -2   -1    0    0    0  501  0.00000000000E+00  0.00000000000E+00  0.45747230093E+03  0.45747230093E+03  0.00000000000E+00 0. -1.
        2   -1    0    0  502    0  0.00000000000E+00  0.00000000000E+00 -0.87275604129E+02  0.87275604129E+02  0.00000000000E+00 0.  1.
        6    2    1    2  502    0  0.71609123161E+02  0.65552502230E+01  0.87112669185E+02  0.20611048439E+03  0.17240091885E+03 0.  0.
       24    2    3    3    0    0  0.10161306793E+03  0.10610607610E+02  0.10797471343E+03  0.16904301193E+03  0.80493481558E+02 0.  0.
       -6    2    1    2    0  501 -0.71609123161E+02 -0.65552502230E+01  0.28308402762E+03  0.33863742066E+03  0.17137064555E+03 0.  0.
      -24    2    5    5    0    0 -0.11346044424E+03  0.28584304910E+01  0.18382469082E+03  0.23040315436E+03  0.80079045656E+02 0.  0.
        5    1    3    3  502    0 -0.30003944765E+02 -0.40553573871E+01 -0.20862044246E+02  0.37067472468E+02  0.47000000000E+01 0. -1.
      -13    1    4    4    0    0  0.22839639536E+02  0.35542128262E+01 -0.11457304012E+02  0.25798282466E+02  0.00000000000E+00 0.  1.
       14    1    4    4    0    0  0.78773428391E+02  0.70563947839E+01  0.11943201744E+03  0.14324472946E+03  0.00000000000E+00 0. -1.
       -5    1    5    5    0  501  0.41851321080E+02 -0.94136807140E+01  0.99259336795E+02  0.10823426630E+03  0.47000000000E+01 0.  1.
        1    1    6    6  503    0 -0.97114187733E+01  0.29828238534E+02  0.35142249142E+02  0.47106402361E+02  0.00000000000E+00 0. -1.
       -2    1    6    6    0  503 -0.10374902547E+03 -0.26969808043E+02  0.14868244168E+03  0.18329675200E+03  0.00000000000E+00 0.  1.
</event>
<event>
12   0  0.1544783E-01  0.2004558E+03  0.7957747E-01  0.1155613E+00
       -1   -1    0    0    0  501  0.00000000000E+00  0.00000000000E+00  0.96820527889E+02  0.96820527889E+02  0.00000000000E+00 0. -1.
        1   -1    0    0  502    0  0.00000000000E+00  0.00000000000E+00 -0.41710450243E+03  0.41710450243E+03  0.00000000000E+00 0.  1.
        6    2    1    2  502    0 -0.89302346049E+02 -0.48207342730E+02 -0.14241479102E+03  0.24632886453E+03  0.17348509993E+03 0.  0.
       24    2    3    3    0    0 -0.43026298661E+02  0.40155217993E+02 -0.74836888597E+02  0.12575408444E+03  0.82157324378E+02 0.  0.
       -6    2    1    2    0  501  0.89302346049E+02  0.48207342730E+02 -0.17786918352E+03  0.26759616579E+03  0.17225389573E+03 0.  0.
      -24    2    5    5    0    0  0.21042168841E+01  0.10806897309E+02 -0.14916128582E+03  0.16835635302E+03  0.77288780932E+02 0.  0.
        5    1    3    3  502    0 -0.46276047388E+02 -0.88362560722E+02 -0.67577902423E+02  0.12057478010E+03  0.47000000000E+01 0. -1.
      -11    1    4    4    0    0 -0.89131108020E+00  0.17510880388E+02 -0.75909092611E+02  0.77907738437E+02  0.00000000000E+00 0.  1.
       12    1    4    4    0    0 -0.42134987581E+02  0.22644337605E+02  0.10722040142E+01  0.47846345999E+02  0.00000000000E+00 0. -1.
       -5    1    5    5    0  501  0.87198129165E+02  0.37400445420E+02 -0.28707897707E+02  0.99239812768E+02  0.47000000000E+01 0.  1.
        3    1    6    6  503    0 -0.28105150742E+02  0.18708632776E+02 -0.29979146054E+02  0.45151540801E+02  0.00000000000E+00 0. -1.
       -4    1    6    6    0  503  0.30209367626E+02 -0.79017354666E+01 -0.11918213976E+03  0.12320481222E+03  0.00000000000E+00 0.  1.
</event>
<event>
12   0  0.1544783E-01  0.1810816E+03  0.7957747E-01  0.1172417E+00
       21   -1    0    0  501  503  0.00000000000E+00  0.00000000000E+00  0.19563431092E+03  0.19563431092E+03  0.00000000000E+00 0.  1.
       21   -1    0    0  503  504  0.00000000000E+00  0.00000000000E+00 -0.29452128789E+03  0.29452128789E+03  0.00000000000E+00 0.  1.
        6    2    1    2  501    0  0.49334676656E+02  0.15014009996E+02  0.11186310451E+03  0.21284711494E+03  0.17358343634E+03 0.  0.
       24    2    3    3    0    0  0.83893968332E+02  0.20733234027E+02  0.21652429151E+02  0.11596001511E+03  0.74228245979E+02 0.  0.
       -6    2    1    2    0  504 -0.49334676656E+02 -0.15014009996E+02 -0.21075008148E+03  0.27730848387E+03  0.17269935601E+03 0.  0.
      -24    2    5    5    0    0  0.14316862128E+02 -0.43801312396E+02 -0.17696969852E+03  0.19956897370E+03  0.79912286663E+02 0.  0.
        5    1    3    3  501    0 -0.34559291676E+02 -0.57192240309E+01  0.90210675361E+02  0.96887099831E+02  0.47000000000E+01 0. -1.
      -13    1    4    4    0    0  0.27674238623E+02 -0.27172292579E+02  0.15758557245E+02  0.41863218866E+02  0.00000000000E+00 0.  1.
       14    1    4    4    0    0  0.56219729709E+02  0.47905526606E+02  0.58938719059E+01  0.74096796246E+02  0.00000000000E+00 0. -1.
       -5    1    5    5    0  504 -0.63651538784E+02  0.28787302400E+02 -0.33780382957E+02  0.77739510172E+02  0.47000000000E+01 0.  1.
        1    1    6    6  502    0 -0.35956896114E+01 -0.64320056905E+02 -0.13422697356E+03  0.14888545643E+03  0.00000000000E+00 0. -1.
       -2    1    6    6    0  502  0.17912551739E+02  0.20518744509E+02 -0.42742724961E+02  0.50683517273E+02  0.00000000000E+00 0.  1.
</event>
<event>
12   0  0.1544783E-01  0.1860716E+03  0.7957747E-01  0.1167876E+00
       21   -1    0    0  501  503  0.00000000000E+00  0.00000000000E+00  0.30795930813E+02  0.30795930813E+02  0.00000000000E+00 0. -1.
       21   -1    0    0  503  504  0.00000000000E+00  0.00000000000E+00 -0.11331435766E+04  0.11331435766E+04  0.00000000000E+00 0. -1.
        6    2    1    2  501    0  0.11751603518E+02 -0.61825214234E+02 -0.62123802102E+03  0.64810126379E+03  0.17360331811E+03 0.  0.
       24    2    3    3    0    0 -0.26313674486E+02 -0.89168122098E+02 -0.30732154150E+03  0.33067056881E+03  0.79076745900E+02 0.  0.
       -6    2    1    2    0  504 -0.11751603518E+02  0.61825214234E+02 -0.48110962475E+03  0.51583824361E+03  0.17510615421E+03 0.  0.
      -24    2    5    5    0    0  0.31593968360E+02  0.95922296474E+02 -0.31229310898E+03  0.33817970704E+03  0.81481669970E+02 0.  0.
        5    1    3    3  501    0  0.38065278004E+02  0.27342907864E+02 -0.31391647952E+03  0.31743069498E+03  0.47000000000E+01 0. -1.
        4    1    4    4  502    0  0.57146165530E+01 -0.75342148435E+02 -0.26634764189E+03  0.27685765750E+03  0.00000000000E+00 0. -1.
       -3    1    4    4    0  502 -0.32028291039E+02 -0.13825973662E+02 -0.40973899607E+02  0.53812911310E+02  0.00000000000E+00 0.  1.
       -5    1    5    5    0  504 -0.43345571878E+02 -0.34097082240E+02 -0.16881651577E+03  0.17765853657E+03  0.47000000000E+01 0.  1.
       11    1    6    6    0    0 -0.17524929471E+02  0.41431062595E+02 -0.19267695750E+03  0.19785870224E+03  0.00000000000E+00 0. -1.
      -12    1    6    6    0    0  0.49118897831E+02  0.54491233879E+02 -0.11961615148E+03  0.14032100480E+03  0.00000000000E+00 0.  1.
</event>
<event>
12   0  0.1544783E-01  0.2128809E+03  0.7957747E-01  0.1145896E+00
       21   -1    0    0  504  503  0.00000000000E+00  0.00000000000E+00  0.20755854657E+03  0.20755854657E+03  0.00000000000E+00 0. -1.
       21   -1    0    0  501  504  0.00000000000E+00  0.00000000000E+00 -0.24362019335E+03  0.24362019335E+03  0.00000000000E+00 0. -1.
        6    2    1    2  501    0  0.79372806808E+02 -0.92021333519E+02 -0.92844997755E+02  0.23224653285E+03  0.17478641288E+03 0.  0.
       24    2    3    3    0    0 -0.48685774618E+01 -0.11163234745E+02 -0.83511821906E+02  0.11501240329E+03  0.78136468162E+02 0.  0.
       -6    2    1    2    0  503 -0.79372806808E+02  0.92021333519E+02  0.56783350969E+02  0.21893220707E+03  0.17302888216E+03 0.  0.
      -24    2    5    5    0    0 -0.96992220498E+02  0.11652683365E+03  0.71410214795E+02  0.18506484194E+03  0.78508490923E+02 0.  0.
        5    1    3    3  501    0  0.84241384270E+02 -0.80858098774E+02 -0.93331758490E+01  0.11723412955E+03  0.47000000000E+01 0. -1.
        4    1    4    4  502    0  0.28228200016E+02 -0.38597535579E+01 -0.42473510212E+01  0.28805710621E+02  0.00000000000E+00 0. -1.
       -3    1    4    4    0  502 -0.33096777478E+02 -0.73034811870E+01 -0.79264470885E+02  0.86206692672E+02  0.00000000000E+00 0.  1.
       -5    1    5    5    0  503  0.17619413690E+02 -0.24505500131E+02 -0.14626863825E+02  0.33867365130E+02  0.47000000000E+01 0.  1.
       11    1    6    6    0    0 -0.56839411372E+02  0.62228564442E+02  0.80954273378E+02  0.11686191551E+03  0.00000000000E+00 0. -1.
      -12    1    6    6    0    0 -0.40152809126E+02  0.54298269208E+02 -0.95440585829E+01  0.68202926432E+02  0.00000000000E+00 0.  1.
</event>
<event>
12   0  0.1544783E-01  0.1954674E+03  0.7957747E-01  0.1159734E+00
       21   -1    0    0  504  503  0.00000000000E+00  0.00000000000E+00  0.15593992255E+03  0.15593992255E+03  0.00000000000E+00 0.  1.
       21   -1    0    0  501  504  0.00000000000E+00  0.00000000000E+00 -0.44334864158E+03  0.44334864158E+03  0.00000000000E+00 0.  1.
        6    2    1    2  501    0 -0.89980108713E+02 -0.14980956258E+02 -0.34642866216E+03  0.39510521219E+03  0.16665671820E+03 0.  0.
       24    2    3    3    0    0 -0.57382117887E+02  0.47295360497E+02 -0.14168573337E+03  0.17858102065E+03  0.79289187902E+02 0.  0.
       -6    2    1    2    0  503  0.89980108713E+02  0.14980956258E+02  0.59019943132E+02  0.20418335194E+03  0.17287752459E+03 0.  0.
      -24    2    5    5    0    0 -0.11241736637E+02 -0.13824187649E+02  0.28928385114E+01  0.84818616092E+02  0.82875474746E+02 0.  0.
        5    1    3    3  501    0 -0.32597990826E+02 -0.62276316755E+02 -0.20474292878E+03  0.21652419154E+03  0.47000000000E+01 0. -1.
        4    1    4    4  502    0 -0.23272819416E+02  0.16483538305E+01  0.25759638623E+01  0.23472894660E+02  0.00000000000E+00 0. -1.
       -3    1    4    4    0  502 -0.34109298471E+02  0.45647006666E+02 -0.14426169723E+03  0.15510812599E+03  0.00000000000E+00 0.  1.
       -5    1    5    5    0  503  0.10122184535E+03  0.28805143907E+02  0.56127104621E+02  0.11936473585E+03  0.47000000000E+01 0.  1.
       13    1    6    6    0    0 -0.23844977139E+02 -0.43217464930E+02 -0.99549676823E+01  0.50353089193E+02  0.00000000000E+00 0. -1.
      -14    1    6    6    0    0  0.12603240502E+02  0.29393277281E+02  0.12847806194E+02  0.34465526899E+02  0.00000000000E+00 0.  1.
</event>
<event>
12   0  0.1544783E-01  0.3492389E+03  0.7957747E-01  0.1071718E+00
        1   -1    0    0  502    0  0.00000000000E+00  0.00000000000E+00  0.23801395447E+03  0.23801395447E+03  0.00000000000E+00 0. -1.
       -1   -1    0    0    0  501  0.00000000000E+00  0.00000000000E+00 -0.51334796632E+03  0.51334796632E+03  0.00000000000E+00 0.  1.
        6    2    1    2  502    0 -0.27751871032E+03 -0.12098581076E+03 -0.12195632241E+03  0.37013749911E+03  0.17456867613E+03 0.  0.
       24    2    3    3    0    0 -0.14611653372E+03 -0.40750205597E+02 -0.12932254773E+03  0.21592778597E+03  0.83005221018E+02 0.  0.
       -6    2    1    2    0  501  0.27751871032E+03  0.12098581076E+03 -0.15337768945E+03  0.38122442169E+03  0.17364660401E+03 0.  0.
      -24    2    5    5    0    0  0.16243938784E+03  0.52581342036E+02 -0.15926171384E+03  0.24713813027E+03  0.81003763391E+02 0.  0.
        5    1    3    3  502    0 -0.13140217660E+03 -0.80235605161E+02  0.73662253279E+01  0.15420971314E+03  0.47000000000E+01 0. -1.
      -11    1    4    4    0    0  0.98933160934E+00  0.11543183428E+02  0.21949467706E+01  0.11791592429E+02  0.00000000000E+00 0.  1.
       12    1    4    4    0    0 -0.14710586533E+03 -0.52293389025E+02 -0.13151749450E+03  0.20413619354E+03  0.00000000000E+00 0. -1.
       -5    1    5    5    0  501  0.11507932248E+03  0.68404468722E+02  0.58840243907E+01  0.13408629142E+03  0.47000000000E+01 0.  1.
        3    1    6    6  503    0  0.56735384864E+02  0.57685933751E+02 -0.50449751167E+02  0.95350659365E+02  0.00000000000E+00 0. -1.
       -4    1    6    6    0  503  0.10570400298E+03 -0.51045917153E+01 -0.10881196267E+03  0.15178747090E+03  0.00000000000E+00 0.  1.
</event>
<event>
12   0  0.1544783E-01  0.2133871E+03  0.7957747E-01  0.1145516E+00
       -2   -1    0    0    0  501  0.00000000000E+00  0.00000000000E+00  0.23755354268E+03  0.23755354268E+03  0.00000000000E+00 0.  1.
        2   -1    0    0  502    0  0.00000000000E+00  0.00000000000E+00 -0.19277839398E+03  0.19277839398E+03  0.00000000000E+00 0. -1.
        6    2    1    2  502    0 -0.86256184489E+02 -0.88219396802E+02  0.61662313567E+01  0.21371818082E+03  0.17439795603E+03 0.  0.
       24    2    3    3    0    0 -0.12763464923E+03 -0.82324636939E+02  0.29561616344E+01  0.17153619313E+03  0.79674193631E+02 0.  0.
       -6    2    1    2    0  501  0.86256184489E+02  0.88219396802E+02  0.38608917345E+02  0.21661375584E+03  0.17380471624E+03 0.  0.
      -24    2    5    5    0    0  0.11895157754E+03  0.39468471983E+02  0.48837553425E+02  0.15684456316E+03  0.80671384568E+02 0.  0.
        5    1    3    3  502    0  0.41378464739E+02 -0.58947598621E+01  0.32100697222E+01  0.42181987691E+02  0.47000000000E+01 0. -1.
      -13    1    4    4    0    0 -0.76389166147E+02 -0.59523972575E+01  0.17038926860E+02  0.78492424898E+02  0.00000000000E+00 0.  1.
       14    1    4    4    0    0 -0.51245483080E+02 -0.76372239682E+02 -0.14082765225E+02  0.93043768230E+02  0.00000000000E+00 0. -1.
       -5    1    5    5    0  501 -0.32695393055E+02  0.48750924818E+02 -0.10228636080E+02  0.59769192681E+02  0.47000000000E+01 0.  1.
        1    1    6    6  503    0  0.18359423035E+02 -0.23817272713E+02  0.72435719364E+01  0.30932187573E+02  0.00000000000E+00 0. -1.
       -2    1    6    6    0  503  0.10059215451E+03  0.63285744696E+02  0.41593981488E+02  0.12591237559E+03  0.00000000000E+00 0.  1.
</event>
<event>
12   0  0.1544783E-01  0.2417871E+03  0.7957747E-01  0.1125853E+00
       21   -1    0    0  501  503  0.00000000000E+00  0.00000000000E+00  0.20574980173E+03  0.20574980173E+03  0.00000000000E+00 0.  1.
       21   -1    0    0  503  504  0.00000000000E+00  0.00000000000E+00 -0.40173264178E+03  0.40173264178E+03  0.00000000000E+00 0. -1.
        6    2    1    2  501    0  0.97970826042E+02  0.13717399319E+03  0.66589910501E+02  0.25078920095E+03  0.17333787806E+03 0.  0.
       24    2    3    3    0    0  0.11116077032E+03  0.93448203234E+02 -0.52821090658E+01  0.16550381807E+03  0.79210665772E+02 0.  0.
       -6    2    1    2    0  504 -0.97970826042E+02 -0.13717399319E+03 -0.26257275055E+03  0.35669324256E+03  0.17283122634E+03 0.  0.
      -24    2    5    5    0    0 -0.94556002195E+02 -0.98711827316E+02 -0.27349907984E+03  0.31628935788E+03  0.80946580103E+02 0.  0.
        5    1    3    3  501    0 -0.13189944278E+02  0.43725789952E+02  0.71872019567E+02  0.85285382883E+02  0.47000000000E+01 0. -1.
      -11    1    4    4    0    0  0.53252368535E+02  0.81256238285E+02  0.23117805264E+02  0.99864027232E+02  0.00000000000E+00 0.  1.
       12    1    4    4    0    0  0.57908401785E+02  0.12191964949E+02 -0.28399914330E+02  0.65639790833E+02  0.00000000000E+00 0. -1.
       -5    1    5    5    0  504 -0.34148238470E+01 -0.38462165870E+02  0.10926329297E+02  0.40403884680E+02  0.47000000000E+01 0.  1.
        1    1    6    6  502    0 -0.33278464315E+02 -0.84342097655E+01 -0.13859709807E+03  0.14278567041E+03  0.00000000000E+00 0. -1.
       -2    1    6    6    0  502 -0.61277537881E+02 -0.90277617551E+02 -0.13490198178E+03  0.17350368747E+03  0.00000000000E+00 0.  1.
</event>
<event>
12   0  0.1544783E-01  0.2526747E+03  0.7957747E-01  0.1119082E+00
       21   -1    0    0  504  503  0.00000000000E+00  0.00000000000E+00  0.91440324539E+03  0.91440324539E+03  0.00000000000E+00 0. -1.
       21   -1    0    0  501  504  0.00000000000E+00  0.00000000000E+00 -0.14727453846E+03  0.14727453846E+03  0.00000000000E+00 0.  1.
        6    2    1    2  501    0  0.14613928684E+02  0.18314691564E+03 -0.26789520646E+01  0.25146280302E+03  0.17166829904E+03 0.  0.
       24    2    3    3    0    0 -0.36042847456E+02  0.17192896383E+03  0.19548655201E+02  0.19482264115E+03  0.81945446045E+02 0.  0.
       -6    2    1    2    0  503 -0.14613928684E+02 -0.18314691564E+03  0.76980765900E+03  0.81021498084E+03  0.17345928543E+03 0.  0.
      -24    2    5    5    0    0  0.17890253944E+02 -0.10841373720E+03  0.21109059650E+03  0.24556604940E+03  0.60579246342E+02 0.  0.
        5    1    3    3  501    0  0.50656776140E+02  0.11217951811E+02 -0.22227607265E+02  0.56640161869E+02  0.47000000000E+01 0. -1.
        4    1    4    4  502    0 -0.11786659098E+02  0.16683556131E+03  0.25879290063E+02  0.16924174279E+03  0.00000000000E+00 0. -1.
       -3    1    4    4    0  502 -0.24256188358E+02  0.50934025224E+01 -0.63306348621E+01  0.25580898355E+02  0.00000000000E+00 0.  1.
       -5    1    5    5    0  503 -0.32504182628E+02 -0.74733178443E+02  0.55871706250E+03  0.56464893144E+03  0.47000000000E+01 0.  1.
       11    1    6    6    0    0 -0.71368360307E+01 -0.49294532427E+02  0.14548629351E+03  0.15377628866E+03  0.00000000000E+00 0. -1.
      -12    1    6    6    0    0  0.25027089975E+02 -0.59119204772E+02  0.65604302995E+02  0.91789760741E+02  0.00000000000E+00 0.  1.
</event>
<event>
12   0  0.1544783E-01  0.1787772E+03  0.7957747E-01  0.1174569E+00
       21   -1    0    0  501  503  0.00000000000E+00  0.00000000000E+00  0.56070311205E+03  0.56070311205E+03  0.00000000000E+00 0.  1.
       21   -1    0    0  503  504  0.00000000000E+00  0.00000000000E+00 -0.75875279668E+02  0.75875279668E+02  0.00000000000E+00 0. -1.
        6    2    1    2  501    0 -0.13494102744E+02  0.44392785216E+02  0.40487640586E+03  0.44073783558E+03  0.16784554060E+03 0.  0.
       24    2    3    3    0    0  0.46906318128E+02  0.58188984648E+02  0.21459024974E+03  0.24056426797E+03  0.78968545149E+02 0.  0.
       -6    2    1    2    0  504  0.13494102744E+02 -0.44392785216E+02  0.79951426522E+02  0.19584055614E+03  0.17265133257E+03 0.  0.
      -24    2    5    5    0    0  0.55352071185E+01  0.32625786035E+01  0.11182703553E+03  0.13776713563E+03  0.80207324157E+02 0.  0.
        5    1    3    3  501    0 -0.60400420872E+02 -0.13796199432E+02  0.19028615612E+03  0.20017356761E+03  0.47000000000E+01 0. -1.
      -13    1    4    4    0    0  0.50786780204E+02  0.52291851463E+02  0.21994100347E+03  0.23170623595E+03  0.00000000000E+00 0.  1.
       14    1    4    4    0    0 -0.38804620755E+01  0.58971331853E+01 -0.53507537254E+01  0.88580320136E+01  0.00000000000E+00 0. -1.
       -5    1    5    5    0  504  0.79588956256E+01 -0.47655363819E+02 -0.31875609004E+02  0.58073420510E+02  0.47000000000E+01 0.  1.
        3    1    6    6  502    0 -0.10316910006E+02  0.37754846667E+02  0.36989336690E+02  0.53852373278E+02  0.00000000000E+00 0. -1.
       -4    1    6    6    0  502  0.15852117125E+02 -0.34492268064E+02  0.74837698836E+02  0.83914762352E+02  0.00000000000E+00 0.  1.
</event>
<event>
12   0  0.1544783E-01  0.1931525E+03  0.7957747E-01  0.1161693E+00
        1   -1    0    0  502    0  0.00000000000E+00  0.00000000000E+00  0.60216133570E+03  0.60216133570E+03  0.00000000000E+00 0.  1.
       -1   -1    0    0    0  501  0.00000000000E+00  0.00000000000E+00 -0.87734690381E+02  0.87734690381E+02  0.00000000000E+00 0. -1.
        6    2    1    2  502    0 -0.53406812505E+02 -0.55862696675E+02  0.44141404249E+03  0.48068304412E+03  0.17388761744E+03 0.  0.
       24    2    3    3    0    0 -0.10217131493E+03 -0.39111346020E+02  0.32717266852E+03  0.35525670729E+03  0.84833354668E+02 0.  0.
       -6    2    1    2    0  501  0.53406812505E+02  0.55862696675E+02  0.73012602829E+02  0.20921298196E+03  0.18018408128E+03 0.  0.
      -24    2    5    5    0    0  0.82722926246E+02 -0.19109884302E+01  0.85575074136E+02  0.14305303259E+03  0.79336891893E+02 0.  0.
        5    1    3    3  502    0  0.48764502425E+02 -0.16751350655E+02  0.11424137397E+03  0.12542633684E+03  0.47000000000E+01 0. -1.
        2    1    4    4  503    0 -0.53808073736E+02  0.19198094967E+02  0.93110806520E+02  0.10924055081E+03  0.00000000000E+00 0. -1.
       -1    1    4    4    0  503 -0.48363241193E+02 -0.58309440987E+02  0.23406186200E+03  0.24601615648E+03  0.00000000000E+00 0.  1.
       -5    1    5    5    0  501 -0.29316113741E+02  0.57773685105E+02 -0.12562471307E+02  0.66159949372E+02  0.47000000000E+01 0.  1.
       11    1    6    6    0    0  0.36085057410E+02 -0.98530065714E+01 -0.79514846353E+01  0.38241851611E+02  0.00000000000E+00 0. -1.
      -12    1    6    6    0    0  0.46637868836E+02  0.79420181412E+01  0.93526558771E+02  0.10481118097E+03  0.00000000000E+00 0.  1.
</event>
<event>
12   0  0.1544783E-01  0.3139641E+03  0.7957747E-01  0.1086851E+00
       21   -1    0    0  504  503  0.00000000000E+00  0.00000000000E+00  0.37485408883E+03  0.37485408883E+03  0.00000000000E+00 0. -1.
       21   -1    0    0  501  504  0.00000000000E+00  0.00000000000E+00 -0.36481487717E+03  0.36481487717E+03  0.00000000000E+00 0.  1.
        6    2    1    2  501    0 -0.10988502271E+03 -0.23748429337E+03  0.20161889862E+03  0.37186980971E+03  0.17077314567E+03 0.  0.
       24    2    3    3    0    0 -0.39046638731E+02 -0.48605946469E+02  0.10161827519E+03  0.14666918525E+03  0.85430662061E+02 0.  0.
       -6    2    1    2    0  503  0.10988502271E+03  0.23748429337E+03 -0.19157968696E+03  0.36779915628E+03  0.17349332866E+03 0.  0.
      -24    2    5    5    0    0  0.93494412227E+02  0.17919740718E+03 -0.64295905796E+02  0.22676985379E+03  0.80235199420E+02 0.  0.
        5    1    3    3  501    0 -0.70838383981E+02 -0.18887834690E+03  0.10000062343E+03  0.22520062447E+03  0.47000000000E+01 0. -1.
      -13    1    4    4    0    0  0.17423512691E+02  0.53729273676E+01 -0.32522710644E+00  0.18236033441E+02  0.00000000000E+00 0.  1.
       14    1    4    4    0    0 -0.56470151422E+02 -0.53978873837E+02  0.10194350230E+03  0.12843315181E+03  0.00000000000E+00 0. -1.
       -5    1    5    5    0  503  0.16390610484E+02  0.58286886190E+02 -0.12728378116E+03  0.14102930249E+03  0.47000000000E+01 0.  1.
        1    1    6    6  502    0 -0.13154818542E+02  0.17174762348E+02 -0.15907600411E+02  0.26852811090E+02  0.00000000000E+00 0. -1.
       -2    1    6    6    0  502  0.10664923077E+03  0.16202264484E+03 -0.48388305386E+02  0.19991704270E+03  0.00000000000E+00 0.  1.
</event>
<event>
12   0  0.1544783E-01  0.1765147E+03  0.7957747E-01  0.1176717E+00
       21   -1    0    0  501  503  0.00000000000E+00  0.00000000000E+00  0.79941613180E+02  0.79941613180E+02  0.00000000000E+00 0. -1.
       21   -1    0    0  503  504  0.00000000000E+00  0.00000000000E+00 -0.42803336309E+03  0.42803336309E+03  0.00000000000E+00 0. -1.
        6    2    1    2  501    0  0.69512083778E+01 -0.28494163173E+02 -0.96897767457E+02  0.20136189240E+03  0.17406090239E+03 0.  0.
       24    2    3    3    0    0 -0.46906655278E+02  0.13867639646E+02 -0.16239766713E+02  0.95423254972E+02  0.80307669795E+02 0.  0.
       -6    2    1    2    0  504 -0.69512083778E+01  0.28494163173E+02 -0.25119398245E+03  0.30661308387E+03  0.17335780844E+03 0.  0.
      -24    2    5    5    0    0 -0.54928340162E+02 -0.21222310649E+00 -0.22568109407E+03  0.24497819715E+03  0.77879350710E+02 0.  0.
        5    1    3    3  501    0  0.53857863656E+02 -0.42361802819E+02 -0.80658000744E+02  0.10593863743E+03  0.47000000000E+01 0. -1.
      -13    1    4    4    0    0 -0.35454273549E+02 -0.31270222856E+02 -0.11205276524E+02  0.48583850942E+02  0.00000000000E+00 0.  1.
       14    1    4    4    0    0 -0.11452381729E+02  0.45137862502E+02 -0.50344901892E+01  0.46839404031E+02  0.00000000000E+00 0. -1.
       -5    1    5    5    0  504  0.47977131784E+02  0.28706386279E+02 -0.25512888383E+02  0.61634886721E+02  0.47000000000E+01 0.  1.
        1    1    6    6  502    0 -0.52196005782E+01 -0.32470015866E+02 -0.11269272916E+03  0.11739334465E+03  0.00000000000E+00 0. -1.
       -2    1    6    6    0  502 -0.49708739584E+02  0.32257792760E+02 -0.11298836490E+03  0.12758485250E+03  0.00000000000E+00 0.  1.
</event>
<event>
12   0  0.1544783E-01  0.3018691E+03  0.7957747E-01  0.1092543E+00
       21   -1    0    0  504  503  0.00000000000E+00  0.00000000000E+00  0.74851351867E+03  0.74851351867E+03  0.00000000000E+00 0. -1.
       21   -1    0    0  501  504  0.00000000000E+00  0.00000000000E+00 -0.16833741450E+03  0.16833741450E+03  0.00000000000E+00 0. -1.
        6    2    1    2  501    0  0.71197103473E+02  0.23661555574E+03  0.48559172619E+02  0.30550691444E+03  0.17297552649E+03 0.  0.
       24    2    3    3    0    0  0.85954754556E+02  0.85073963788E+02 -0.14067413314E+01  0.14519058678E+03  0.80327631760E+02 0.  0.
       -6    2    1    2    0  503 -0.71197103473E+02 -0.23661555574E+03  0.53161693155E+03  0.61134401873E+03  0.17340414806E+03 0.  0.
      -24    2    5    5    0    0 -0.51038088212E+02 -0.13353975903E+03  0.44563359850E+03  0.47552712241E+03  0.84255482586E+02 0.  0.
        5    1    3    3  501    0 -0.14757651083E+02  0.15154159195E+03  0.49965913950E+02  0.16031632766E+03  0.47000000000E+01 0. -1.
      -11    1    4    4    0    0  0.22031341384E+02 -0.13953089599E+02 -0.75948233425E+01  0.27161554708E+02  0.00000000000E+00 0.  1.
       12    1    4    4    0    0  0.63923413172E+02  0.99027053386E+02  0.61880820112E+01  0.11802903208E+03  0.00000000000E+00 0. -1.
       -5    1    5    5    0  503 -0.20159015261E+02 -0.10307579671E+03  0.85983333055E+02  0.13581689632E+03  0.47000000000E+01 0.  1.
        3    1    6    6  502    0 -0.56820494222E+02 -0.37285403978E+02  0.21691854742E+03  0.22731569705E+03  0.00000000000E+00 0. -1.
       -4    1    6    6    0  502  0.57824060102E+01 -0.96254355052E+02  0.22871505108E+03  0.24821142536E+03  0.00000000000E+00 0.  1.
</event>
<event>
12   0  0.1544783E-01  0.2207518E+03  0.7957747E-01  0.1140109E+00
       21   -1    0    0  501  503  0.00000000000E+00  0.00000000000E+00  0.34741653869E+03  0.34741653869E+03  0.00000000000E+00 0.  1.
       21   -1    0    0  503  504  0.00000000000E+00  0.00000000000E+00 -0.27060259381E+03  0.27060259381E+03  0.00000000000E+00 0. -1.
        6    2    1    2  501    0 -0.35482798707E+02  0.11764036989E+03  0.25806337373E+03  0.33959982497E+03  0.18339315861E+03 0.  0.
       24    2    3    3    0    0 -0.34226568404E+02 -0.12370298271E+02  0.44514971255E+02  0.89541107564E+02  0.68640695028E+02 0.  0.
       -6    2    1    2    0  504  0.35482798707E+02 -0.11764036989E+03 -0.18124942885E+03  0.27841930754E+03  0.17195252170E+03 0.  0.
      -24    2    5    5    0    0  0.41252769231E+02 -0.13989918003E+03 -0.10055268793E+03  0.19437883404E+03  0.79991977921E+02 0.  0.
        5    1    3    3  501    0 -0.12562303027E+01  0.13001066816E+03  0.21354840248E+03  0.25005871740E+03  0.47000000000E+01 0. -1.
      -11    1    4    4    0    0 -0.31811940689E+02  0.24774241133E+02  0.25904944912E+02  0.47925241419E+02  0.00000000000E+00 0.  1.
       12    1    4    4    0    0 -0.24146277148E+01 -0.37144539404E+02  0.18610026343E+02  0.41615866145E+02  0.00000000000E+00 0. -1.
       -5    1    5    5    0  504 -0.57699705240E+01  0.22258810149E+02 -0.80696740922E+02  0.84040473490E+02  0.47000000000E+01 0.  1.
        1    1    6    6  502    0  0.44607036142E+02 -0.24534589596E+02 -0.29156001738E+02  0.58666908879E+02  0.00000000000E+00 0. -1.
       -2    1    6    6    0  502 -0.33542669113E+01 -0.11536459044E+03 -0.71396686191E+02  0.13571192517E+03  0.00000000000E+00 0.  1.
</event>
<event>
12   0  0.1544783E-01  0.2112462E+03  0.7957747E-01  0.1147133E+00
       21   -1    0    0  504  503  0.00000000000E+00  0.00000000000E+00  0.19034479731E+03  0.19034479731E+03  0.00000000000E+00 0.  1.
       21   -1    0    0  501  504  0.00000000000E+00  0.00000000000E+00 -0.23022922822E+03  0.23022922822E+03  0.00000000000E+00 0.  1.
        6    2    1    2  501    0 -0.59174196826E+02  0.10673808574E+03 -0.21948072415E+02  0.21238327540E+03  0.17242486268E+03 0.  0.
       24    2    3    3    0    0  0.34306208362E+02  0.36379682726E+02 -0.12840050591E+02  0.94935682451E+02  0.79671322669E+02 0.  0.
       -6    2    1    2    0  503  0.59174196826E+02 -0.10673808574E+03 -0.17936358491E+02  0.20819075013E+03  0.16771127263E+03 0.  0.
      -24    2    5    5    0    0  0.35279280615E+00 -0.93250976333E+02 -0.57398663734E+02  0.13593271787E+03  0.80543330823E+02 0.  0.
        5    1    3    3  501    0 -0.93480405188E+02  0.70358403011E+02 -0.91080218239E+01  0.11744759295E+03  0.47000000000E+01 0. -1.
        4    1    4    4  502    0  0.38961193145E+02 -0.15215145804E+02 -0.10261883360E+02  0.43067174080E+02  0.00000000000E+00 0. -1.
       -3    1    4    4    0  502 -0.46549847832E+01  0.51594828530E+02 -0.25781672314E+01  0.51868508371E+02  0.00000000000E+00 0.  1.
       -5    1    5    5    0  503  0.58821404020E+02 -0.13487109405E+02  0.39462305243E+02  0.72258032260E+02  0.47000000000E+01 0.  1.
       13    1    6    6    0    0 -0.96567977717E+01 -0.10148066619E+03 -0.31038591199E+02  0.10655971798E+03  0.00000000000E+00 0. -1.
      -14    1    6    6    0    0  0.10009590578E+02  0.82296898527E+01 -0.26360072534E+02  0.29372999891E+02  0.00000000000E+00 0.  1.
</event>
<event>
12   0  0.1544783E-01  0.2476403E+03  0.7957747E-01  0.1122166E+00
       21   -1    0    0  504  503  0.00000000000E+00  0.00000000000E+00  0.47191701880E+03  0.47191701880E+03  0.00000000000E+00 0.  1.
       21   -1    0    0  501  504  0.00000000000E+00  0.00000000000E+00 -0.13198560064E+03  0.13198560064E+03  0.00000000000E+00 0. -1.
        6    2    1    2  501    0 -0.95715588500E+02  0.14983528913E+03  0.13244626666E+03  0.28083403701E+03  0.17237649214E+03 0.  0.
       24    2    3    3    0    0 -0.59030390374E+02  0.16649811833E+03  0.14073384989E+03  0.23943080436E+03  0.79466239231E+02 0.  0.
       -6    2    1    2    0  503  0.95715588500E+02 -0.14983528913E+03  0.20748515150E+03  0.32306858243E+03  0.17236917680E+03 0.  0.
      -24    2    5    5    0    0 -0.92508054198E+01 -0.10098280207E+03  0.87955284005E+02  0.15659339339E+03  0.80636562131E+02 0.  0.
        5    1    3    3  501    0 -0.36685198126E+02 -0.16662829197E+02 -0.82875832312E+01  0.41403232654E+02  0.47000000000E+01 0. -1.
      -11    1    4    4    0    0  0.15056190593E+01  0.10190859595E+03  0.96971418333E+02  0.14068079041E+03  0.00000000000E+00 0.  1.
       12    1    4    4    0    0 -0.60536009433E+02  0.64589522373E+02  0.43762431555E+02  0.98750013944E+02  0.00000000000E+00 0. -1.
       -5    1    5    5    0  503  0.10496639392E+03 -0.48852487055E+02  0.11952986750E+03  0.16647518905E+03  0.47000000000E+01 0.  1.
        1    1    6    6  502    0 -0.33763759179E+02 -0.99184116951E+02  0.74622200179E+02  0.12863107420E+03  0.00000000000E+00 0. -1.
       -2    1    6    6    0  502  0.24512953759E+02 -0.17986851219E+01  0.13333083826E+02  0.27962319190E+02  0.00000000000E+00 0.  1.
</event>
<event>
12   0  0.1544783E-01  0.1939821E+03  0.7957747E-01  0.1160987E+00
       21   -1    0    0  504  503  0.00000000000E+00  0.00000000000E+00  0.37218155962E+02  0.37218155962E+02  0.00000000000E+00 0. -1.
       21   -1    0    0  501  504  0.00000000000E+00  0.00000000000E+00 -0.94110971714E+03  0.94110971714E+03  0.00000000000E+00 0. -1.
        6    2    1    2  501    0  0.25514416972E+02 -0.24528801923E+02 -0.50645839769E+03  0.53608113092E+03  0.17213431601E+03 0.  0.
       24    2    3    3    0    0  0.35390975596E+02 -0.80596776728E+02 -0.32035008998E+03  0.34140304688E+03  0.78635225552E+02 0.  0.
       -6    2    1    2    0  503 -0.25514416972E+02  0.24528801923E+02 -0.39743316350E+03  0.44224674218E+03  0.19072601796E+03 0.  0.
      -24    2    5    5    0    0 -0.44271086426E+02  0.81589691708E+02 -0.18862820888E+03  0.22492357991E+03  0.79957543259E+02 0.  0.
        5    1    3    3  501    0 -0.98765586232E+01  0.56067974805E+02 -0.18610830770E+03  0.19467808404E+03  0.47000000000E+01 0. -1.
      -13    1    4    4    0    0  0.14383471672E+02  0.14154688724E+02 -0.41501339962E+02  0.46147596783E+02  0.00000000000E+00 0.  1.
       14    1    4    4    0    0  0.21007503924E+02 -0.94751465453E+02 -0.27884875002E+03  0.29525545010E+03  0.00000000000E+00 0. -1.
       -5    1    5    5    0  503  0.18756669453E+02 -0.57060889785E+02 -0.20880495461E+03  0.21732316228E+03  0.47000000000E+01 0.  1.
        1    1    6    6  502    0  0.14288866160E+02  0.30538452659E+02 -0.19853962217E+02  0.39127338303E+02  0.00000000000E+00 0. -1.
       -2    1    6    6    0  502 -0.58559952586E+02  0.51051239049E+02 -0.16877424667E+03  0.18579624160E+03  0.00000000000E+00 0.  1.
</event>
<event>
12   0  0.1544783E-01  0.2348523E+03  0.7957747E-01  0.1130372E+00
       21   -1    0    0  501  503  0.00000000000E+00  0.00000000000E+00  0.50948674860E+03  0.50948674860E+03  0.00000000000E+00 0. -1.
       21   -1    0    0  503  504  0.00000000000E+00  0.00000000000E+00 -0.13148921145E+03  0.13148921145E+03  0.00000000000E+00 0.  1.
        6    2    1    2  501    0 -0.11568505972E+03  0.10617460165E+03  0.32472074661E+03  0.40015647756E+03  0.17327886248E+03 0.  0.
       24    2    3    3    0    0 -0.77170227290E+02  0.77449492868E+01  0.23862760657E+03  0.26375300421E+03  0.81285204014E+02 0.  0.
       -6    2    1    2    0  504  0.11568505972E+03 -0.10617460165E+03  0.53276790539E+02  0.24081948248E+03  0.17464113963E+03 0.  0.
      -24    2    5    5    0    0  0.12713210658E+02 -0.28635900107E+02  0.68032544368E+02  0.11099161872E+03  0.81908924015E+02 0.  0.
        5    1    3    3  501    0 -0.38514832427E+02  0.98429652368E+02  0.86093140033E+02  0.13640347335E+03  0.47000000000E+01 0. -1.
        2    1    4    4  502    0 -0.22401448388E+02 -0.15104741393E+02  0.17370901899E+03  0.17579761484E+03  0.00000000000E+00 0. -1.
       -1    1    4    4    0  502 -0.54768778902E+02  0.22849690679E+02  0.64918587581E+02  0.87955389375E+02  0.00000000000E+00 0.  1.
       -5    1    5    5    0  504  0.10297184906E+03 -0.77538701548E+02 -0.14755753829E+02  0.12982786376E+03  0.47000000000E+01 0.  1.
       13    1    6    6    0    0  0.19509216322E+02  0.15809687646E+02 -0.46387223661E+01  0.25535729678E+02  0.00000000000E+00 0. -1.
      -14    1    6    6    0    0 -0.67960056643E+01 -0.44445587753E+02  0.72671266734E+02  0.85455889045E+02  0.00000000000E+00 0.  1.
</event>
<event>
12   0  0.1544783E-01  0.1775923E+03  0.7957747E-01  0.1175690E+00
       21   -1    0    0  504  503  0.00000000000E+00  0.00000000000E+00  0.64209695335E+02  0.64209695335E+02  0.00000000000E+00 0. -1.
       21   -1    0    0  501  504  0.00000000000E+00  0.00000000000E+00 -0.48286472996E+03  0.48286472996E+03  0.00000000000E+00 0. -1.
        6    2    1    2  501    0  0.21725663191E+02 -0.30668426133E+02 -0.20940235712E+03  0.27456941711E+03  0.17356975786E+03 0.  0.
       24    2    3    3    0    0  0.31652248613E+02 -0.54244967961E+02 -0.52144424642E+02  0.11517513318E+03  0.81252008531E+02 0.  0.
       -6    2    1    2    0  503 -0.21725663191E+02  0.30668426133E+02 -0.20925267751E+03  0.27250500819E+03  0.17046917504E+03 0.  0.
      -24    2    5    5    0    0 -0.11166910759E+02  0.83442405772E+02 -0.11225288759E+03  0.16147514994E+03  0.79913567666E+02 0.  0.
        5    1    3    3  501    0 -0.99265854218E+01  0.23576541828E+02 -0.15725793247E+03  0.15939428393E+03  0.47000000000E+01 0. -1.
      -11    1    4    4    0    0  0.18640462804E+02 -0.84836385244E+01 -0.63112197926E+02  0.66352004515E+02  0.00000000000E+00 0.  1.
       12    1    4    4    0    0  0.13011785809E+02 -0.45761329437E+02  0.10967773284E+02  0.48823128664E+02  0.00000000000E+00 0. -1.
       -5    1    5    5    0  503 -0.10558752432E+02 -0.52773979639E+02 -0.96999789912E+02  0.11102985825E+03  0.47000000000E+01 0.  1.
        1    1    6    6  502    0 -0.21889348186E+02 -0.83776233906E+01 -0.26564637253E+02  0.35426093350E+02  0.00000000000E+00 0. -1.
       -2    1    6    6    0  502  0.10722437427E+02  0.91820029162E+02 -0.85688250341E+02  0.12604905659E+03  0.00000000000E+00 0.  1.
</event>
<event>
12   0  0.1544783E-01  0.2452232E+03  0.7957747E-01  0.1123675E+00
       21   -1    0    0  501  503  0.00000000000E+00  0.00000000000E+00  0.82338610086E+02  0.82338610086E+02  0.00000000000E+00 0.  1.
       21   -1    0    0  503  504  0.00000000000E+00  0.00000000000E+00 -0.13877279644E+04  0.13877279644E+04  0.00000000000E+00 0.  1.
        6    2    1    2  501    0  0.70897640340E+01  0.17285479778E+03 -0.14477309548E+03  0.28382692645E+03  0.17224816148E+03 0.  0.
       24    2    3    3    0    0 -0.81361571827E+01  0.14492849648E+03 -0.34912751999E+02  0.16935818814E+03  0.79955171766E+02 0.  0.
       -6    2    1    2    0  504 -0.70897640340E+01 -0.17285479778E+03 -0.11606162588E+04  0.11862396480E+04  0.17379688268E+03 0.  0.
      -24    2    5    5    0    0 -0.59953231484E+01 -0.14295626745E+03 -0.54173504720E+03  0.56661785691E+03  0.84300036226E+02 0.  0.
        5    1    3    3  501    0  0.15225921217E+02  0.27926301303E+02 -0.10986034348E+03  0.11446873831E+03  0.47000000000E+01 0. -1.
        4    1    4    4  502    0 -0.30788479690E+02  0.22722702830E+02  0.55149017373E+01  0.38660908508E+02  0.00000000000E+00 0. -1.
       -3    1    4    4    0  502  0.22652322507E+02  0.12220579365E+03 -0.40427653736E+02  0.13069727963E+03  0.00000000000E+00 0.  1.
       -5    1    5    5    0  504 -0.10944408856E+01 -0.29898530330E+02 -0.61888121161E+03  0.61962179109E+03  0.47000000000E+01 0.  1.
       11    1    6    6    0    0 -0.37211299962E+02 -0.12043479496E+03 -0.37982988941E+03  0.40019990701E+03  0.00000000000E+00 0. -1.
      -12    1    6    6    0    0  0.31215976813E+02 -0.22521472488E+02 -0.16190515778E+03  0.16641794990E+03  0.00000000000E+00 0.  1.
</event>
<event>
12   0  0.1544783E-01  0.2798412E+03  0.7957747E-01  0.1103691E+00
        2   -1    0    0  502    0  0.00000000000E+00  0.00000000000E+00  0.11264621175E+04  0.11264621175E+04  0.00000000000E+00 0. -1.
       -2   -1    0    0    0  501  0.00000000000E+00  0.00000000000E+00 -0.77173829888E+02  0.77173829888E+02  0.00000000000E+00 0.  1.
        6    2    1    2  502    0 -0.19036152695E+03 -0.10803280589E+03  0.71516932460E+03  0.76818572541E+03  0.17530986221E+03 0.  0.
       24    2    3    3    0    0 -0.16274900022E+03 -0.14095217397E+03  0.52506814573E+03  0.57323269354E+03  0.80897533135E+02 0.  0.
       -6    2    1    2    0  501  0.19036152695E+03  0.10803280589E+03  0.33411896302E+03  0.43545022198E+03  0.17341515586E+03 0.  0.
      -24    2    5    5    0    0  0.15556263017E+03  0.11545566442E+03  0.33922916319E+03  0.39919741254E+03  0.82173028838E+02 0.  0.
        5    1    3    3  502    0 -0.27612526731E+02  0.32919368083E+02  0.19010117887E+03  0.19495303187E+03  0.47000000000E+01 0. -1.
      -11    1    4    4    0    0 -0.71477041603E+02 -0.58767577878E+02  0.13040577996E+03  0.15990079153E+03  0.00000000000E+00 0.  1.
       12    1    4    4    0    0 -0.91271958619E+02 -0.82184596091E+02  0.39466236577E+03  0.41333190201E+03  0.00000000000E+00 0. -1.
       -5    1    5    5    0  501  0.34798896785E+02 -0.74228585303E+01 -0.51102001771E+01  0.36252809437E+02  0.47000000000E+01 0.  1.
        3    1    6    6  503    0  0.16923379363E+02  0.50449309670E+02  0.56152752888E+02  0.77360618354E+02  0.00000000000E+00 0. -1.
       -4    1    6    6    0  503  0.13863925081E+03  0.65006354745E+02  0.28307641030E+03  0.32183679419E+03  0.00000000000E+00 0.  1.
</event>
<event>
12   0  0.1544783E-01  0.1764148E+03  0.7957747E-01  0.1176813E+00
       -2   -1    0    0    0  501  0.00000000000E+00  0.00000000000E+00  0.36818891362E+02  0.36818891362E+02  0.00000000000E+00 0. -1.
        2   -1    0    0  502    0  0.00000000000E+00  0.00000000000E+00 -0.87538945522E+03  0.87538945522E+03  0.00000000000E+00 0.  1.
        6    2    1    2  502    0  0.25885750938E+02  0.39145545906E+02 -0.51237709020E+03  0.54321908018E+03  0.17422468437E+03 0.  0.
       24    2    3    3    0    0  0.62578632899E+02  0.50654465015E+02 -0.22174359388E+03  0.25001481352E+03  0.82796288748E+02 0.  0.
       -6    2    1    2    0  501 -0.25885750938E+02 -0.39145545906E+02 -0.32619347366E+03  0.36898926640E+03  0.16597725927E+03 0.  0.
      -24    2    5    5    0    0  0.14516436831E+02  0.43245412801E+01 -0.28541012075E+03  0.29682724640E+03  0.80112724229E+02 0.  0.
        5    1    3    3  502    0 -0.36692881961E+02 -0.11508919109E+02 -0.29063349631E+03  0.29320426666E+03  0.47000000000E+01 0. -1.
      -13    1    4    4    0    0  0.52165307524E+02  0.39942181181E+02 -0.22527779351E+03  0.23466291014E+03  0.00000000000E+00 0.  1.
       14    1    4    4    0    0  0.10413325375E+02  0.10712283834E+02  0.35341996305E+01  0.15351903378E+02  0.00000000000E+00 0. -1.
       -5    1    5    5    0  501 -0.40402187769E+02 -0.43470087186E+02 -0.40783352913E+02  0.72162020005E+02  0.47000000000E+01 0.  1.
        3    1    6    6  503    0  0.24901815706E+02 -0.25344090190E+02 -0.64037489122E+02  0.73234031338E+02  0.00000000000E+00 0. -1.
       -4    1    6    6    0  503 -0.10385378875E+02  0.29668631470E+02 -0.22137263163E+03  0.22359321506E+03  0.00000000000E+00 0.  1.
</event>
<event>
12   0  0.1544783E-01  0.1954918E+03  0.7957747E-01  0.1159714E+00
        2   -1    0    0  502    0  0.00000000000E+00  0.00000000000E+00  0.36100682916E+03  0.36100682916E+03  0.00000000000E+00 0. -1.
       -2   -1    0    0    0  501  0.00000000000E+00  0.00000000000E+00 -0.10589418396E+03  0.10589418396E+03  0.00000000000E+00 0.  1.
        6    2    1    2  502    0  0.90822048325E+02  0.90770406101E+01  0.12357992505E+03  0.23136754290E+03  0.17299683495E+03 0.  0.
       24    2    3    3    0    0  0.70265786254E+02 -0.36703827671E+02  0.13675106548E+03  0.17927131701E+03  0.84574816046E+02 0.  0.
       -6    2    1    2    0  501 -0.90822048325E+02 -0.90770406101E+01  0.13153272015E+03  0.23553347022E+03  0.17275451368E+03 0.  0.
      -24    2    5    5    0    0 -0.24166769389E+02 -0.66193578388E+02  0.10002329809E+03  0.14215167984E+03  0.72365857668E+02 0.  0.
        5    1    3    3  502    0  0.20556262071E+02  0.45780868281E+02 -0.13171140433E+02  0.52096225882E+02  0.47000000000E+01 0. -1.
      -11    1    4    4    0    0  0.27493179124E+01  0.21076477556E+02  0.77492505251E+01  0.22623605788E+02  0.00000000000E+00 0.  1.
       12    1    4    4    0    0  0.67516468342E+02 -0.57780305227E+02  0.12900181496E+03  0.15664771123E+03  0.00000000000E+00 0. -1.
       -5    1    5    5    0  501 -0.66655278937E+02  0.57116537778E+02  0.31509422057E+02  0.93381790389E+02  0.47000000000E+01 0.  1.
        1    1    6    6  503    0  0.24798244900E+02 -0.35025370720E+02  0.44700326685E+02  0.61966513134E+02  0.00000000000E+00 0. -1.
       -2    1    6    6    0  503 -0.48965014288E+02 -0.31168207668E+02  0.55322971409E+02  0.80185166702E+02  0.00000000000E+00 0.  1.
</event>
<event>
12   0  0.1544783E-01  0.2088092E+03  0.7957747E-01  0.1148999E+00
       21   -1    0    0  504  503  0.00000000000E+00  0.00000000000E+00  0.66656153283E+03  0.66656153283E+03  0.00000000000E+00 0.  1.
       21   -1    0    0  501  504  0.00000000000E+00  0.00000000000E+00 -0.77495295843E+02  0.77495295843E+02  0.00000000000E+00 0.  1.
        6    2    1    2  501    0  0.11107520893E+03 -0.35736211761E+02  0.14706816987E+03  0.25540230327E+03  0.17316613715E+03 0.  0.
       24    2    3    3    0    0  0.22184918310E+02  0.58438522033E+01 -0.29254532507E+01  0.76096524043E+02  0.72496906732E+02 0.  0.
       -6    2    1    2    0  503 -0.11107520893E+03  0.35736211761E+02  0.44199806712E+03  0.48865452541E+03  0.17264464950E+03 0.  0.
      -24    2    5    5    0    0 -0.11072025481E+03  0.65657701112E+02  0.43137253477E+03  0.45655447159E+03  0.76090822270E+02 0.  0.
        5    1    3    3  501    0  0.88890290615E+02 -0.41580063965E+02  0.14999362312E+03  0.17930577922E+03  0.47000000000E+01 0. -1.
      -11    1    4    4    0    0  0.14676374624E+02 -0.33136871138E+02  0.56640749979E+00  0.36245951752E+02  0.00000000000E+00 0.  1.
       12    1    4    4    0    0  0.75085436859E+01  0.38980723341E+02 -0.34918607505E+01  0.39850572292E+02  0.00000000000E+00 0. -1.
       -5    1    5    5    0  503 -0.35495411482E+00 -0.29921489351E+02  0.10625532342E+02  0.32100053815E+02  0.47000000000E+01 0.  1.
        3    1    6    6  502    0  0.14341612360E+01  0.23000568424E+02  0.31259582435E+02  0.38836123136E+02  0.00000000000E+00 0. -1.
       -4    1    6    6    0  502 -0.11215441605E+03  0.42657132689E+02  0.40011295234E+03  0.41771834846E+03  0.00000000000E+00 0.  1.
</event>
<event>
12   0  0.1544783E-01  0.1814621E+03  0.7957747E-01  0.1172065E+00
        2   -1    0    0  502    0  0.00000000000E+00  0.00000000000E+00  0.15647252193E+04  0.15647252193E+04  0.00000000000E+00 0. -1.
       -2   -1    0    0    0  501  0.00000000000E+00  0.00000000000E+00 -0.21051523173E+02  0.21051523173E+02  0.00000000000E+00 0.  1.
        6    2    1    2  502    0 -0.38824767382E+02  0.41855009196E+02  0.78347451020E+03  0.80406645881E+03  0.17155569855E+03 0.  0.
       24    2    3    3    0    0 -0.13686471479E+02 -0.42858741253E+02  0.36806699991E+03  0.37933849525E+03  0.80001164669E+02 0.  0.
       -6    2    1    2    0  501  0.38824767382E+02 -0.41855009196E+02  0.76019918595E+03  0.78171028368E+03  0.17294207392E+03 0.  0.
      -24    2    5    5    0    0 -0.13489406862E+02 -0.80734626208E+02  0.41158494429E+03  0.42702397589E+03  0.79039646068E+02 0.  0.
        5    1    3    3  502    0 -0.25138295904E+02  0.84713750449E+02  0.41540751028E+03  0.42472796357E+03  0.47000000000E+01 0. -1.
        2    1    4    4  503    0  0.29692209767E+02 -0.79766002381E+01  0.19854970426E+03  0.20091599870E+03  0.00000000000E+00 0. -1.
       -1    1    4    4    0  503 -0.43378681246E+02 -0.34882141015E+02  0.16951729565E+03  0.17842249654E+03  0.00000000000E+00 0.  1.
       -5    1    5    5    0  501  0.52314174244E+02  0.38879617013E+02  0.34861424166E+03  0.35468630779E+03  0.47000000000E+01 0.  1.
       13    1    6    6    0    0  0.27021081488E+02 -0.47612771399E+02  0.28214366252E+03  0.28740591703E+03  0.00000000000E+00 0. -1.
      -14    1    6    6    0    0 -0.40510488350E+02 -0.33121854809E+02  0.12944128177E+03  0.13961805886E+03  0.00000000000E+00 0.  1.
</event>
<event>
12   0  0.1544783E-01  0.2125965E+03  0.7957747E-01  0.1146110E+00
       21   -1    0    0  501  503  0.00000000000E+00  0.00000000000E+00  0.13255033217E+03  0.13255033217E+03  0.00000000000E+00 0. -1.
       21   -1    0    0  503  504  0.00000000000E+00  0.00000000000E+00 -0.35490265252E+03  0.35490265252E+03  0.00000000000E+00 0. -1.
        6    2    1    2  501    0  0.89682335963E+02 -0.81360943504E+02 -0.58631255144E+02  0.21912137015E+03  0.17295671789E+03 0.  0.
       24    2    3    3    0    0  0.55492282755E+02 -0.11468009308E+03 -0.74947869213E+02  0.16845138533E+03  0.80794609497E+02 0.  0.
       -6    2    1    2    0  504 -0.89682335963E+02  0.81360943504E+02 -0.16372106521E+03  0.26833161454E+03  0.17474193446E+03 0.  0.
      -24    2    5    5    0    0 -0.12089205618E+03  0.95185128148E+02 -0.15205315139E+03  0.23195325655E+03  0.83708150792E+02 0.  0.
        5    1    3    3  501    0  0.34190053208E+02  0.33319149580E+02  0.16316614069E+02  0.50669984821E+02  0.47000000000E+01 0. -1.
      -11    1    4    4    0    0  0.27673004888E+02 -0.34345717176E+02 -0.70700416033E+02  0.83330500509E+02  0.00000000000E+00 0.  1.
       12    1    4    4    0    0  0.27819277867E+02 -0.80334375908E+02 -0.42474531799E+01  0.85120884817E+02  0.00000000000E+00 0. -1.
       -5    1    5    5    0  504  0.31209720219E+02 -0.13824184644E+02 -0.11667913825E+02  0.36378357993E+02  0.47000000000E+01 0.  1.
        1    1    6    6  502    0 -0.80118599945E+02  0.11157843377E+02 -0.59083756939E+02  0.10017174182E+03  0.00000000000E+00 0. -1.
       -2    1    6    6    0  502 -0.40773456237E+02  0.84027284771E+02 -0.92969394451E+02  0.13178151473E+03  0.00000000000E+00 0.  1.
</event>
<event>
12   0  0.1544783E-01  0.1944520E+03  0.7957747E-01  0.1160590E+00
       21   -1    0    0  504  503  0.00000000000E+00  0.00000000000E+00  0.44640486603E+03  0.44640486603E+03  0.00000000000E+00 0.  1.
       21   -1    0    0  501  504  0.00000000000E+00  0.00000000000E+00 -0.87870817906E+02  0.87870817906E+02  0.00000000000E+00 0.  1.
        6    2    1    2  501    0 -0.89072142257E+02 -0.91825247532E+01  0.12702340405E+03  0.23226394632E+03  0.17260773534E+03 0.  0.
       24    2    3    3    0    0 -0.11754304020E+03 -0.43603989627E+02  0.98040024476E+02  0.17880783755E+03  0.81502896638E+02 0.  0.
       -6    2    1    2    0  503  0.89072142257E+02  0.91825247532E+01  0.23151064407E+03  0.30201173761E+03  0.17203414210E+03 0.  0.
      -24    2    5    5    0    0  0.24718157650E+02  0.52648257880E+02  0.74550460414E+02  0.12682813522E+03  0.84526790788E+02 0.  0.
        5    1    3    3  501    0  0.28470897940E+02  0.34421464874E+02  0.28983379571E+02  0.53456108771E+02  0.47000000000E+01 0. -1.
      -13    1    4    4    0    0 -0.10863917550E+02 -0.36633480962E+02  0.46323476093E+02  0.60049155441E+02  0.00000000000E+00 0.  1.
       14    1    4    4    0    0 -0.10667912265E+03 -0.69705086653E+01  0.51716548383E+02  0.11875868211E+03  0.00000000000E+00 0. -1.
       -5    1    5    5    0  503  0.64353984606E+02 -0.43465733127E+02  0.15696018366E+03  0.17518360239E+03  0.47000000000E+01 0.  1.
        3    1    6    6  502    0 -0.28433936184E+02  0.26850736305E+02  0.12283099948E+02  0.40991771264E+02  0.00000000000E+00 0. -1.
       -4    1    6    6    0  502  0.53152093834E+02  0.25797521575E+02  0.62267360467E+02  0.85836363960E+02  0.00000000000E+00 0.  1.
</event>
<event>
12   0  0.1544783E-01  0.2104659E+03  0.7957747E-01  0.1147727E+00
       21   -1    0    0  504  503  0.00000000000E+00  0.00000000000E+00  0.26390965233E+03  0.26390965233E+03  0.00000000000E+00 0.  1.
       21   -1    0    0  501  504  0.00000000000E+00  0.00000000000E+00 -0.23142453682E+03  0.23142453682E+03  0.00000000000E+00 0. -1.
        6    2    1    2  501    0  0.36716277031E+02  0.11417022530E+03 -0.11430962876E+03  0.23950491109E+03  0.17295371018E+03 0.  0.
       24    2    3    3    0    0  0.35148693822E+02  0.28051088908E+01 -0.86889886271E+02  0.12470692004E+03  0.82211095700E+02 0.  0.
       -6    2    1    2    0  503 -0.36716277031E+02 -0.11417022530E+03  0.14679474426E+03  0.25582927806E+03  0.17180511409E+03 0.  0.
      -24    2    5    5    0    0 -0.28478047678E+01 -0.14324085800E+03  0.10920907995E+03  0.19728914431E+03  0.80438361021E+02 0.  0.
        5    1    3    3  501    0  0.15675832091E+01  0.11136511641E+03 -0.27419742487E+02  0.11479799105E+03  0.47000000000E+01 0. -1.
      -11    1    4    4    0    0  0.47670651768E+02  0.78181639922E+01 -0.13598880901E+02  0.50185100279E+02  0.00000000000E+00 0.  1.
       12    1    4    4    0    0 -0.12521957947E+02 -0.50130551014E+01 -0.73291005370E+02  0.74521819760E+02  0.00000000000E+00 0. -1.
       -5    1    5    5    0  503 -0.33868472263E+02  0.29070632700E+02  0.37585664307E+02  0.58540133758E+02  0.47000000000E+01 0.  1.
        3    1    6    6  502    0  0.34813686111E+02 -0.10209307083E+03  0.80216059161E+02  0.13442322716E+03  0.00000000000E+00 0. -1.
       -4    1    6    6    0  502 -0.37661490878E+02 -0.41147787176E+02  0.28993020792E+02  0.62865917152E+02  0.00000000000E+00 0.  1.
</event>
<event>
12   0  0.1544783E-01  0.1865184E+03  0.7957747E-01  0.1167477E+00
       21   -1    0    0  504  503  0.00000000000E+00  0.00000000000E+00  0.12727764886E+03  0.12727764886E+03  0.00000000000E+00 0. -1.
       21   -1    0    0  501  504  0.00000000000E+00  0.00000000000E+00 -0.33450640207E+03  0.33450640207E+03  0.00000000000E+00 0. -1.
        6    2    1    2  501    0 -0.66540613424E+02 -0.19705893360E+02 -0.21027813923E+03  0.27524072722E+03  0.16347656288E+03 0.  0.
       24    2    3    3    0    0 -0.51607176035E+02 -0.63038689646E+02 -0.19643192616E+03  0.22713099429E+03  0.79786025961E+02 0.  0.
       -6    2    1    2    0  503  0.66540613424E+02  0.19705893360E+02  0.30493860206E+01  0.18654332372E+03  0.17312751774E+03 0.  0.
      -24    2    5    5    0    0  0.67002689018E+01  0.70141977681E+02 -0.58964451212E+01  0.10763335395E+03  0.81150355392E+02 0.  0.
        5    1    3    3  501    0 -0.14933437389E+02  0.43332796287E+02 -0.13846213068E+02  0.48109732930E+02  0.47000000000E+01 0. -1.
        4    1    4    4  502    0 -0.54666063110E+02 -0.32791162316E+02 -0.18320106434E+03  0.19397491785E+03  0.00000000000E+00 0. -1.
       -3    1    4    4    0  502  0.30588870749E+01 -0.30247527330E+02 -0.13230861825E+02  0.33156076432E+02  0.00000000000E+00 0.  1.
       -5    1    5    5    0  503  0.59840344522E+02 -0.50436084321E+02  0.89458311418E+01  0.78909969770E+02  0.47000000000E+01 0.  1.
       13    1    6    6    0    0 -0.12043695576E+02 -0.10489929500E+02 -0.17895682453E+02  0.23986343500E+02  0.00000000000E+00 0. -1.
      -14    1    6    6    0    0  0.18743964478E+02  0.80631907181E+02  0.11999237332E+02  0.83647010446E+02  0.00000000000E+00 0.  1.
</event>
<event>
12   0  0.1544783E-01  0.3242064E+03  0.7957747E-01  0.1082244E+00
       21   -1    0    0  501  503  0.00000000000E+00  0.00000000000E+00  0.24970081663E+03  0.24970081663E+03  0.00000000000E+00 0. -1.
       21   -1    0    0  503  504  0.00000000000E+00  0.00000000000E+00 -0.42316541433E+03  0.42316541433E+03  0.00000000000E+00 0. -1.
        6    2    1    2  501    0 -0.26762274862E+03 -0.58032770434E+02 -0.12718510126E+03  0.34537334490E+03  0.16768112404E+03 0.  0.
       24    2    3    3    0    0 -0.14485543446E+03 -0.86009613792E+02 -0.37241493282E+02  0.19056229941E+03  0.80909273733E+02 0.  0.
       -6    2    1    2    0  504  0.26762274862E+03  0.58032770434E+02 -0.46279496445E+02  0.32749288607E+03  0.17355131982E+03 0.  0.
      -24    2    5    5    0    0  0.92008305322E+02 -0.14853030476E+02  0.19471569601E+02  0.12625157481E+03  0.82910658888E+02 0.  0.
        5    1    3    3  501    0 -0.12276731416E+03  0.27976843357E+02 -0.89943607976E+02  0.15481104549E+03  0.47000000000E+01 0. -1.
      -11    1    4    4    0    0 -0.24050439492E+02  0.10075272274E+02  0.11772738918E+02  0.28610000573E+02  0.00000000000E+00 0.  1.
       12    1    4    4    0    0 -0.12080499497E+03 -0.96084886065E+02 -0.49014232200E+02  0.16195229883E+03  0.00000000000E+00 0. -1.
       -5    1    5    5    0  504  0.17561444330E+03  0.72885800910E+02 -0.65751066046E+02  0.20124131125E+03  0.47000000000E+01 0.  1.
        1    1    6    6  502    0  0.91591106273E+02  0.15116214869E+02  0.49896878741E+01  0.92964120419E+02  0.00000000000E+00 0. -1.
       -2    1    6    6    0  502  0.41719904955E+00 -0.29969245345E+02  0.14481881727E+02  0.33287454393E+02  0.00000000000E+00 0.  1.
</event>
<event>
12   0  0.1544783E-01  0.1777789E+03  0.7957747E-01  0.1175513E+00
        2   -1    0    0  502    0  0.00000000000E+00  0.00000000000E+00  0.55884459020E+03  0.55884459020E+03  0.00000000000E+00 0. -1.
       -2   -1    0    0    0  501  0.00000000000E+00  0.00000000000E+00 -0.56624859463E+02  0.56624859463E+02  0.00000000000E+00 0.  1.
        6    2    1    2  502    0 -0.26164873370E+02  0.34818724372E+02  0.24338230809E+03  0.30249872834E+03  0.17428020138E+03 0.  0.
       24    2    3    3    0    0  0.35019466636E+02 -0.99545981697E+01  0.18869794451E+03  0.20890041910E+03  0.81896359917E+02 0.  0.
       -6    2    1    2    0  501  0.26164873370E+02 -0.34818724372E+02  0.25883742265E+03  0.31297072132E+03  0.17046089544E+03 0.  0.
      -24    2    5    5    0    0  0.16231840721E+02 -0.65063851225E+02  0.26139121490E+03  0.28069000431E+03  0.77231689767E+02 0.  0.
        5    1    3    3  502    0 -0.61184340006E+02  0.44773322541E+02  0.54684363573E+02  0.93598309241E+02  0.47000000000E+01 0. -1.
        2    1    4    4  503    0  0.61585022162E+02 -0.48443830071E+01  0.14338420997E+03  0.15612563745E+03  0.00000000000E+00 0. -1.
       -1    1    4    4    0  503 -0.26565555526E+02 -0.51102151626E+01  0.45313734544E+02  0.52774781646E+02  0.00000000000E+00 0.  1.
       -5    1    5    5    0  501  0.99330326486E+01  0.30245126853E+02 -0.25537922489E+01  0.32280717012E+02  0.47000000000E+01 0.  1.
       13    1    6    6    0    0  0.37336335605E+02 -0.95819617624E+01  0.65479160402E+02  0.75982474259E+02  0.00000000000E+00 0. -1.
      -14    1    6    6    0    0 -0.21104494883E+02 -0.55481889462E+02  0.19591205450E+03  0.20470753005E+03  0.00000000000E+00 0.  1.
</event>
<event>
12   0  0.1544783E-01  0.1761037E+03  0.7957747E-01  0.1177111E+00
       21   -1    0    0  504  503  0.00000000000E+00  0.00000000000E+00  0.26771652595E+03  0.26771652595E+03  0.00000000000E+00 0. -1.
       21   -1    0    0  501  504  0.00000000000E+00  0.00000000000E+00 -0.30862804450E+03  0.30862804450E+03  0.00000000000E+00 0. -1.
        6    2    1    2  501    0 -0.16494402783E+02  0.27756203770E+01 -0.24917718971E+03  0.30360455474E+03  0.17264612476E+03 0.  0.
       24    2    3    3    0    0  0.69194549169E+01 -0.22660408325E+02 -0.43506069408E+02  0.94995111005E+02  0.81055043506E+02 0.  0.
       -6    2    1    2    0  503  0.16494402783E+02 -0.27756203770E+01  0.20826567116E+03  0.27274001571E+03  0.17530760678E+03 0.  0.
      -24    2    5    5    0    0  0.27729905368E+02 -0.57764402652E+02  0.18386750708E+03  0.21136116671E+03  0.82222921173E+02 0.  0.
        5    1    3    3  501    0 -0.23413857699E+02  0.25436028702E+02 -0.20567112031E+03  0.20860944374E+03  0.47000000000E+01 0. -1.
      -13    1    4    4    0    0  0.38702698205E+02  0.14364258162E+01 -0.41319785714E+01  0.38949138815E+02  0.00000000000E+00 0.  1.
       14    1    4    4    0    0 -0.31783243289E+02 -0.24096834141E+02 -0.39374090836E+02  0.56045972190E+02  0.00000000000E+00 0. -1.
       -5    1    5    5    0  503 -0.11235502585E+02  0.54988782275E+02  0.24398164079E+02  0.61378849002E+02  0.47000000000E+01 0.  1.
        1    1    6    6  502    0  0.50506450287E+02 -0.12535564876E+02  0.74921232432E+02  0.91220792457E+02  0.00000000000E+00 0. -1.
       -2    1    6    6    0  502 -0.22776544920E+02 -0.45228837776E+02  0.10894627465E+03  0.12014037425E+03  0.00000000000E+00 0.  1.
</event>
<event>
12   0  0.1544783E-01  0.2040969E+03  0.7957747E-01  0.1152687E+00
       21   -1    0    0  501  503  0.00000000000E+00  0.00000000000E+00  0.44455738946E+03  0.44455738946E+03  0.00000000000E+00 0. -1.
       21   -1    0    0  503  504  0.00000000000E+00  0.00000000000E+00 -0.12312319530E+03  0.12312319530E+03  0.00000000000E+00 0. -1.
        6    2    1    2  501    0 -0.57010334989E+02  0.93038675802E+02  0.30491550474E+03  0.36691828564E+03  0.17247953448E+03 0.  0.
       24    2    3    3    0    0  0.59103314265E+01  0.77223750028E+02  0.27269799869E+03  0.29432916913E+03  0.79164523141E+02 0.  0.
       -6    2    1    2    0  504  0.57010334989E+02 -0.93038675802E+02  0.16518689425E+02  0.20076229913E+03  0.16770885535E+03 0.  0.
      -24    2    5    5    0    0  0.74491108722E+02 -0.24675915787E+02 -0.29598257229E+02  0.11633536518E+03  0.80622789970E+02 0.  0.
        5    1    3    3  501    0 -0.62920666416E+02  0.15814925774E+02  0.32217506042E+02  0.72589116505E+02  0.47000000000E+01 0. -1.
      -13    1    4    4    0    0  0.14971397097E+02 -0.12185231494E+02  0.31627570683E+02  0.37053013709E+02  0.00000000000E+00 0.  1.
       14    1    4    4    0    0 -0.90610656708E+01  0.89408981521E+02  0.24107042801E+03  0.25727615542E+03  0.00000000000E+00 0. -1.
       -5    1    5    5    0  504 -0.17480773732E+02 -0.68362760015E+02  0.46116946655E+02  0.84426933948E+02  0.47000000000E+01 0.  1.
        1    1    6    6  502    0  0.37064541245E+02  0.25775201433E+02 -0.28729006400E+02  0.53511653267E+02  0.00000000000E+00 0. -1.
       -2    1    6    6    0  502  0.37426567477E+02 -0.50451117220E+02 -0.86925082884E+00  0.62823711916E+02  0.00000000000E+00 0.  1.
</event>
<event>
12   0  0.1544783E-01  0.1742758E+03  0.7957747E-01  0.1178878E+00
       -1   -1    0    0    0  501  0.00000000000E+00  0.00000000000E+00  0.75134828064E+02  0.75134828064E+02  0.00000000000E+00 0. -1.
        1   -1    0    0  502    0  0.00000000000E+00  0.00000000000E+00 -0.41804248814E+03  0.41804248814E+03  0.00000000000E+00 0.  1.
        6    2    1    2  502    0  0.34208811290E+01  0.21797740128E+02 -0.12677214586E+03  0.21562101942E+03  0.17301561532E+03 0.  0.
       24    2    3    3    0    0  0.58414075782E+01 -0.27549280574E+02 -0.13890352240E+03  0.16453043617E+03  0.83564292539E+02 0.  0.
       -6    2    1    2    0  501 -0.34208811290E+01 -0.21797740128E+02 -0.21613551422E+03  0.27755629679E+03  0.17273127534E+03 0.  0.
      -24    2    5    5    0    0  0.27126329128E+02 -0.33703880549E+02 -0.39765783034E+02  0.98103628068E+02  0.78557081436E+02 0.  0.
        5    1    3    3  502    0 -0.24205264493E+01  0.49347020703E+02  0.12131376534E+02  0.51090583253E+02  0.47000000000E+01 0. -1.
      -11    1    4    4    0    0  0.17202409614E+02  0.11305211968E+02 -0.11641705203E+03  0.11822292805E+03  0.00000000000E+00 0.  1.
       12    1    4    4    0    0 -0.11361002036E+02 -0.38854492542E+02 -0.22486470369E+02  0.46307508113E+02  0.00000000000E+00 0. -1.
       -5    1    5    5    0  501 -0.30547210257E+02  0.11906140421E+02 -0.17636973118E+03  0.17945266872E+03  0.47000000000E+01 0.  1.
        3    1    6    6  503    0 -0.18066149115E+02 -0.93361864659E+01  0.13273267682E+02  0.24284352092E+02  0.00000000000E+00 0. -1.
       -4    1    6    6    0  503  0.45192478243E+02 -0.24367694083E+02 -0.53039050716E+02  0.73819275975E+02  0.00000000000E+00 0.  1.
</event>
<event>
12   0  0.1544783E-01  0.1787719E+03  0.7957747E-01  0.1174574E+00
       21   -1    0    0  504  503  0.00000000000E+00  0.00000000000E+00  0.27801724240E+02  0.27801724240E+02  0.00000000000E+00 0. -1.
       21   -1    0    0  501  504  0.00000000000E+00  0.00000000000E+00 -0.12776972548E+04  0.12776972548E+04  0.00000000000E+00 0. -1.
        6    2    1    2  501    0  0.16338950198E+02  0.31180094718E+02 -0.83684822566E+03  0.85542401073E+03  0.17377032469E+03 0.  0.
       24    2    3    3    0    0 -0.16392984743E+02  0.34384601792E+02 -0.21444295524E+03  0.23213269916E+03  0.80304284932E+02 0.  0.
       -6    2    1    2    0  503 -0.16338950198E+02 -0.31180094718E+02 -0.41304730490E+03  0.45007496831E+03  0.17527190709E+03 0.  0.
      -24    2    5    5    0    0  0.37833172451E+02  0.12175120215E+02 -0.12211649707E+03  0.15094770696E+03  0.79329621782E+02 0.  0.
        5    1    3    3  501    0  0.32731934941E+02 -0.32045070736E+01 -0.62240527041E+03  0.62329131156E+03  0.47000000000E+01 0. -1.
      -13    1    4    4    0    0  0.16177827018E+02 -0.10297238262E+02 -0.12825066354E+02  0.23070273727E+02  0.00000000000E+00 0.  1.
       14    1    4    4    0    0 -0.32570811761E+02  0.44681840054E+02 -0.20161788889E+03  0.20906242544E+03  0.00000000000E+00 0. -1.
       -5    1    5    5    0  503 -0.54172122649E+02 -0.43355214933E+02 -0.29093080783E+03  0.29912726135E+03  0.47000000000E+01 0.  1.
        1    1    6    6  502    0  0.43689152772E+02 -0.24900912009E+02 -0.59098134052E+02  0.77597596208E+02  0.00000000000E+00 0. -1.
       -2    1    6    6    0  502 -0.58559803211E+01  0.37076032223E+02 -0.63018363014E+02  0.73350110756E+02  0.00000000000E+00 0.  1.
</event>
<event>
12   0  0.1544783E-01  0.2035236E+03  0.7957747E-01  0.1153144E+00
       21   -1    0    0  504  503  0.00000000000E+00  0.00000000000E+00  0.40225652050E+03  0.40225652050E+03  0.00000000000E+00 0. -1.
       21   -1    0    0  501  504  0.00000000000E+00  0.00000000000E+00 -0.10960677751E+03  0.10960677751E+03  0.00000000000E+00 0. -1.
        6    2    1    2  501    0 -0.88166244149E+02 -0.60391199467E+02  0.80223822748E+02  0.21876409319E+03  0.17320936220E+03 0.  0.
       24    2    3    3    0    0 -0.57624449220E+02  0.27048425935E+02  0.11871765612E+02  0.10355739615E+03  0.80814608739E+02 0.  0.
       -6    2    1    2    0  503  0.88166244149E+02  0.60391199467E+02  0.21242592024E+03  0.29309920482E+03  0.17135340293E+03 0.  0.
      -24    2    5    5    0    0  0.42710436451E+02  0.10004299106E+03  0.10960279940E+03  0.17379631630E+03  0.79747128353E+02 0.  0.
        5    1    3    3  501    0 -0.30541794929E+02 -0.87439625402E+02  0.68352057136E+02  0.11520669704E+03  0.47000000000E+01 0. -1.
      -11    1    4    4    0    0 -0.70723538720E+02  0.44380779861E+01 -0.71703507571E+01  0.71224499965E+02  0.00000000000E+00 0.  1.
       12    1    4    4    0    0  0.13099089499E+02  0.22610347949E+02  0.19042116369E+02  0.32332896188E+02  0.00000000000E+00 0. -1.
       -5    1    5    5    0  503  0.45455807698E+02 -0.39651791595E+02  0.10282312084E+03  0.11930288852E+03  0.47000000000E+01 0.  1.
        1    1    6    6  502    0  0.53018391440E+02  0.24149992160E+02  0.45545630628E+02  0.73949823675E+02  0.00000000000E+00 0. -1.
       -2    1    6    6    0  502 -0.10307954989E+02  0.75892998903E+02  0.64057168773E+02  0.99846492626E+02  0.00000000000E+00 0.  1.
</event>
<event>
12   0  0.1544783E-01  0.1988617E+03  0.7957747E-01  0.1156916E+00
       21   -1    0    0  501  503  0.00000000000E+00  0.00000000000E+00  0.22687852141E+03  0.22687852141E+03  0.00000000000E+00 0. -1.
       21   -1    0    0  503  504  0.00000000000E+00  0.00000000000E+00 -0.26956251068E+03  0.26956251068E+03  0.00000000000E+00 0.  1.
        6    2    1    2  501    0 -0.12860374791E+02  0.96475210373E+02  0.12668019006E+03  0.23578344919E+03  0.17341599956E+03 0.  0.
       24    2    3    3    0    0 -0.59566255198E+01 -0.25551096858E+01  0.10587135369E+03  0.13424644256E+03  0.82288236309E+02 0.  0.
       -6    2    1    2    0  504  0.12860374791E+02 -0.96475210373E+02 -0.16936417933E+03  0.26065758290E+03  0.17258416737E+03 0.  0.
      -24    2    5    5    0    0  0.26298772567E+02  0.12064747094E+02 -0.53041757961E+02  0.10092496690E+03  0.80840814533E+02 0.  0.
        5    1    3    3  501    0 -0.69037492707E+01  0.99030320059E+02  0.20808836369E+02  0.10153700663E+03  0.47000000000E+01 0. -1.
        4    1    4    4  502    0 -0.15565225978E+02  0.37815458414E+02  0.56609805153E+02  0.69835200252E+02  0.00000000000E+00 0. -1.
       -3    1    4    4    0  502  0.96086004578E+01 -0.40370568100E+02  0.49261548538E+02  0.64411242309E+02  0.00000000000E+00 0.  1.
       -5    1    5    5    0  504 -0.13438397776E+02 -0.10853995747E+03 -0.11632242137E+03  0.15973261600E+03  0.47000000000E+01 0.  1.
       13    1    6    6    0    0 -0.18234293857E+02  0.25022084366E+02 -0.43792531716E+02  0.53631893614E+02  0.00000000000E+00 0. -1.
      -14    1    6    6    0    0  0.44533066424E+02 -0.12957337273E+02 -0.92492262449E+01  0.47293073282E+02  0.00000000000E+00 0.  1.
</event>
<event>
12   0  0.1544783E-01  0.3067309E+03  0.7957747E-01  0.1090221E+00
       21   -1    0    0  504  503  0.00000000000E+00  0.00000000000E+00  0.42878322327E+03  0.42878322327E+03  0.00000000000E+00 0. -1.
       21   -1    0    0  501  504  0.00000000000E+00  0.00000000000E+00 -0.24366901740E+03  0.24366901740E+03  0.00000000000E+00 0.  1.
        6    2    1    2  501    0 -0.80004730708E+02 -0.23930253283E+03  0.20072375738E+03  0.36532437428E+03  0.17177139608E+03 0.  0.
       24    2    3    3    0    0  0.12022862493E+01 -0.73944883649E+02  0.26837257873E+02  0.11195441462E+03  0.79650870885E+02 0.  0.
       -6    2    1    2    0  503  0.80004730708E+02  0.23930253283E+03 -0.15609551505E+02  0.30712786639E+03  0.17440587451E+03 0.  0.
      -24    2    5    5    0    0  0.34088077703E+02  0.20610240400E+03 -0.63638535311E+02  0.23270031193E+03  0.80370230944E+02 0.  0.
        5    1    3    3  501    0 -0.81207016957E+02 -0.16535764918E+03  0.17388649951E+03  0.25336995966E+03  0.47000000000E+01 0. -1.
      -13    1    4    4    0    0  0.19591835181E+02  0.31751606902E+01 -0.12493751443E+02  0.23452408752E+02  0.00000000000E+00 0.  1.
       14    1    4    4    0    0 -0.18389548932E+02 -0.77120044339E+02  0.39331009316E+02  0.88502005867E+02  0.00000000000E+00 0. -1.
       -5    1    5    5    0  503  0.45916653005E+02  0.33200128830E+02  0.48028983806E+02  0.74427554461E+02  0.47000000000E+01 0.  1.
        3    1    6    6  502    0  0.23723823492E+01  0.17857914542E+03 -0.35328136656E+02  0.18205553168E+03  0.00000000000E+00 0. -1.
       -4    1    6    6    0  502  0.31715695353E+02  0.27523258578E+02 -0.28310398655E+02  0.50644780249E+02  0.00000000000E+00 0.  1.
</event>
<event>
12   0  0.1544783E-01  0.1739805E+03  0.7957747E-01  0.1179166E+00
       21   -1    0    0  501  503  0.00000000000E+00  0.00000000000E+00  0.94991292785E+02  0.94991292785E+02  0.00000000000E+00 0. -1.
       21   -1    0    0  503  504  0.00000000000E+00  0.00000000000E+00 -0.34773422300E+03  0.34773422300E+03  0.00000000000E+00 0. -1.
        6    2    1    2  501    0 -0.61486067944E+01  0.16032124340E+01 -0.60762400148E+02  0.18363913995E+03  0.17317877698E+03 0.  0.
       24    2    3    3    0    0  0.37413936977E+02 -0.55229239910E+01 -0.92412176770E+02  0.12912056146E+03  0.81864544265E+02 0.  0.
       -6    2    1    2    0  504  0.61486067944E+01 -0.16032124340E+01 -0.19198053006E+03  0.25908637583E+03  0.17386446032E+03 0.  0.
      -24    2    5    5    0    0  0.51003596685E+02 -0.49022419122E+02 -0.94369040828E+02  0.14156767897E+03  0.78302793122E+02 0.  0.
        5    1    3    3  501    0 -0.43562543771E+02  0.71261364250E+01  0.31649776622E+02  0.54518578488E+02  0.47000000000E+01 0. -1.
        2    1    4    4  502    0  0.40533903300E+02  0.22763413285E+02 -0.89063545951E+02  0.10046634023E+03  0.00000000000E+00 0. -1.
       -1    1    4    4    0  502 -0.31199663231E+01 -0.28286337276E+02 -0.33486308187E+01  0.28654221237E+02  0.00000000000E+00 0.  1.
       -5    1    5    5    0  504 -0.44854989891E+02  0.47419206688E+02 -0.97611489237E+02  0.11751869686E+03  0.47000000000E+01 0.  1.
       11    1    6    6    0    0  0.45343114218E+02 -0.78692261406E+01 -0.88317332400E+02  0.99588523080E+02  0.00000000000E+00 0. -1.
      -12    1    6    6    0    0  0.56604824675E+01 -0.41153192981E+02 -0.60517084281E+01  0.41979155890E+02  0.00000000000E+00 0.  1.
</event>
<event>
12   0  0.1544783E-01  0.1974223E+03  0.7957747E-01  0.1158103E+00
       21   -1    0    0  501  503  0.00000000000E+00  0.00000000000E+00  0.36068382668E+03  0.36068382668E+03  0.00000000000E+00 0. -1.
       21   -1    0    0  503  504  0.00000000000E+00  0.00000000000E+00 -0.15794900869E+03  0.15794900869E+03  0.00000000000E+00 0. -1.
        6    2    1    2  501    0 -0.64273816024E+02 -0.70448577587E+02  0.25013915744E+03  0.31866153025E+03  0.17286250973E+03 0.  0.
       24    2    3    3    0    0 -0.24032403600E+02 -0.98940695452E+00  0.38100236016E+02  0.91887321278E+02  0.80081936030E+02 0.  0.
       -6    2    1    2    0  504  0.64273816024E+02  0.70448577587E+02 -0.47404339442E+02  0.19997130511E+03  0.16925491414E+03 0.  0.
      -24    2    5    5    0    0  0.25223547613E+01  0.72106705989E+02  0.17645048013E+02  0.11014088061E+03  0.81326050813E+02 0.  0.
        5    1    3    3  501    0 -0.40241412424E+02 -0.69459170633E+02  0.21203892142E+03  0.22677420898E+03  0.47000000000E+01 0. -1.
      -13    1    4    4    0    0  0.22471037805E+02  0.17660665854E+02  0.29457044947E+02  0.41043442295E+02  0.00000000000E+00 0.  1.
       14    1    4    4    0    0 -0.46503441404E+02 -0.18650072808E+02  0.86431910690E+01  0.50843878983E+02  0.00000000000E+00 0. -1.
       -5    1    5    5    0  504  0.61751461262E+02 -0.16581284013E+01 -0.65049387455E+02  0.89830424501E+02  0.47000000000E+01 0.  1.
        1    1    6    6  502    0  0.40628460742E+02  0.34241501011E+02 -0.13803696159E+01  0.53151271236E+02  0.00000000000E+00 0. -1.
       -2    1    6    6    0  502 -0.38106105980E+02  0.37865204978E+02  0.19025417629E+02  0.56989609377E+02  0.00000000000E+00 0.  1.
</event>
<event>
12   0  0.1544783E-01  0.2092090E+03  0.7957747E-01  0.1148691E+00
       21   -1    0    0  504  503  0.00000000000E+00  0.00000000000E+00  0.22777104263E+04  0.22777104263E+04  0.00000000000E+00 0.  1.
       21   -1    0    0  501  504  0.00000000000E+00  0.00000000000E+00 -0.19592629976E+02  0.19592629976E+02  0.00000000000E+00 0. -1.
        6    2    1    2  501    0  0.41688650317E+02  0.10866673367E+03  0.96129054274E+03  0.98379261741E+03  0.17384476962E+03 0.  0.
       24    2    3    3    0    0  0.35113806992E+02  0.71276381294E+01  0.65895183104E+03  0.66475625101E+03  0.79997343455E+02 0.  0.
       -6    2    1    2    0  503 -0.41688650317E+02 -0.10866673367E+03  0.12968272535E+04  0.13135104388E+04  0.17321184953E+03 0.  0.
      -24    2    5    5    0    0  0.40155974863E+02 -0.74943471886E+02  0.84983193556E+03  0.85781020255E+03  0.79968735092E+02 0.  0.
        5    1    3    3  501    0  0.65748433252E+01  0.10153909554E+03  0.30233871171E+03  0.31903636640E+03  0.47000000000E+01 0. -1.
        2    1    4    4  502    0  0.12267404051E+02 -0.34649452120E+02  0.37959069515E+03  0.38136618830E+03  0.00000000000E+00 0. -1.
       -1    1    4    4    0  502  0.22846402941E+02  0.41777090249E+02  0.27936113588E+03  0.28339006270E+03  0.00000000000E+00 0.  1.
       -5    1    5    5    0  503 -0.81844625180E+02 -0.33723261788E+02  0.44699531798E+03  0.45570023628E+03  0.47000000000E+01 0.  1.
       13    1    6    6    0    0  0.24844794400E+02 -0.10864551233E+02  0.67999354576E+02  0.73206656152E+02  0.00000000000E+00 0. -1.
      -14    1    6    6    0    0  0.15311180463E+02 -0.64078920652E+02  0.78183258099E+03  0.78460354639E+03  0.00000000000E+00 0.  1.
</event>
<event>
12   0  0.1544783E-01  0.2057087E+03  0.7957747E-01  0.1151414E+00
       -2   -1    0    0    0  501  0.00000000000E+00  0.00000000000E+00  0.37763239333E+02  0.37763239333E+02  0.00000000000E+00 0.  1.
        2   -1    0    0  502    0  0.00000000000E+00  0.00000000000E+00 -0.12146638476E+04  0.12146638476E+04  0.00000000000E+00 0. -1.
        6    2    1    2  502    0 -0.14702259419E+02 -0.11725089223E+03 -0.77469523267E+03  0.80278870599E+03  0.17422133850E+03 0.  0.
       24    2    3    3    0    0 -0.11673809921E+01  0.29475393624E+01 -0.20193910282E+03  0.21738070283E+03  0.80404713463E+02 0.  0.
       -6    2    1    2    0  501  0.14702259419E+02  0.11725089223E+03 -0.40220537562E+03  0.44963838096E+03  0.16260867534E+03 0.  0.
      -24    2    5    5    0    0  0.51002943922E+02  0.35176831087E+02 -0.28091673204E+03  0.29868502303E+03  0.80373023526E+02 0.  0.
        5    1    3    3  502    0 -0.13534878426E+02 -0.12019843160E+03 -0.57275612985E+03  0.58540800316E+03  0.47000000000E+01 0. -1.
      -13    1    4    4    0    0  0.36879907983E+02  0.97222357379E+01 -0.67864055358E+02  0.77847154670E+02  0.00000000000E+00 0.  1.
       14    1    4    4    0    0 -0.38047288975E+02 -0.67746963754E+01 -0.13407504746E+03  0.13953354816E+03  0.00000000000E+00 0. -1.
       -5    1    5    5    0  501 -0.36300684504E+02  0.82074061146E+02 -0.12128864358E+03  0.15095335793E+03  0.47000000000E+01 0.  1.
        1    1    6    6  503    0 -0.48273994244E+01  0.42983612267E+02 -0.94451264429E+02  0.10388424356E+03  0.00000000000E+00 0. -1.
       -2    1    6    6    0  503  0.55830343346E+02 -0.78067811798E+01 -0.18646546761E+03  0.19480077947E+03  0.00000000000E+00 0.  1.
</event>
<event>
12   0  0.1544783E-01  0.1907762E+03  0.7957747E-01  0.1163735E+00
       21   -1    0    0  501  503  0.00000000000E+00  0.00000000000E+00  0.12079440230E+03  0.12079440230E+03  0.00000000000E+00 0.  1.
       21   -1    0    0  503  504  0.00000000000E+00  0.00000000000E+00 -0.59732978812E+03  0.59732978812E+03  0.00000000000E+00 0.  1.
        6    2    1    2  501    0  0.34986548399E+02 -0.74171350974E+02  0.15001148598E+02  0.19136509436E+03  0.17225015822E+03 0.  0.
       24    2    3    3    0    0 -0.47206615965E+02 -0.39054008652E+02  0.87313743006E+01  0.10164138473E+03  0.80629113916E+02 0.  0.
       -6    2    1    2    0  504 -0.34986548399E+02  0.74171350974E+02 -0.49153653442E+03  0.52675909606E+03  0.17070891232E+03 0.  0.
      -24    2    5    5    0    0 -0.48931377890E+02  0.10556579560E+03 -0.45587322631E+03  0.47701946430E+03  0.78668633574E+02 0.  0.
        5    1    3    3  501    0  0.82193164364E+02 -0.35117342322E+02  0.62697742972E+01  0.89723709629E+02  0.47000000000E+01 0. -1.
        2    1    4    4  502    0 -0.66175769297E+02 -0.10614758492E+02  0.41410325639E+01  0.67149487642E+02  0.00000000000E+00 0. -1.
       -1    1    4    4    0  502  0.18969153332E+02 -0.28439250160E+02  0.45903417367E+01  0.34491897093E+02  0.00000000000E+00 0.  1.
       -5    1    5    5    0  504  0.13944829491E+02 -0.31394444628E+02 -0.35663308103E+02  0.49739631763E+02  0.47000000000E+01 0.  1.
       11    1    6    6    0    0 -0.21096471763E+02 -0.40626543742E+01 -0.33769220555E+02  0.40024074484E+02  0.00000000000E+00 0. -1.
      -12    1    6    6    0    0 -0.27834906127E+02  0.10962844998E+03 -0.42210400576E+03  0.43699538981E+03  0.00000000000E+00 0.  1.
</event>
<event>
12   0  0.1544783E-01  0.2017202E+03  0.7957747E-01  0.1154590E+00
       21   -1    0    0  504  503  0.00000000000E+00  0.00000000000E+00  0.52060600744E+03  0.52060600744E+03  0.00000000000E+00 0.  1.
       21   -1    0    0  501  504  0.00000000000E+00  0.00000000000E+00 -0.83628882514E+02  0.83628882514E+02  0.00000000000E+00 0.  1.
        6    2    1    2  501    0  0.26207111219E+02 -0.87955815424E+02  0.13015234990E+03  0.24006391130E+03  0.17963298466E+03 0.  0.
       24    2    3    3    0    0  0.83576578812E+02 -0.39094808188E+02  0.57210302422E+02  0.13508159788E+03  0.80377676196E+02 0.  0.
       -6    2    1    2    0  503 -0.26207111219E+02  0.87955815424E+02  0.30682477503E+03  0.36417097866E+03  0.17336672397E+03 0.  0.
      -24    2    5    5    0    0  0.19163744136E+02 -0.43154381344E+01  0.65078503884E+02  0.10142424060E+03  0.75271460841E+02 0.  0.
        5    1    3    3  501    0 -0.57369467593E+02 -0.48861007236E+02  0.72942047476E+02  0.10498231342E+03  0.47000000000E+01 0. -1.
      -11    1    4    4    0    0  0.60836764220E+02 -0.38985815977E+02 -0.13415038168E+01  0.72268979241E+02  0.00000000000E+00 0.  1.
       12    1    4    4    0    0  0.22739814592E+02 -0.10899221066E+00  0.58551806239E+02  0.62812618643E+02  0.00000000000E+00 0. -1.
       -5    1    5    5    0  503 -0.45370855355E+02  0.92271253558E+02  0.24174627115E+03  0.26274673806E+03  0.47000000000E+01 0.  1.
        3    1    6    6  502    0 -0.17574784809E+02 -0.22203224814E+02  0.50763685218E+02  0.58127514914E+02  0.00000000000E+00 0. -1.
       -4    1    6    6    0  502  0.36738528945E+02  0.17887786680E+02  0.14314818666E+02  0.43296725682E+02  0.00000000000E+00 0.  1.
</event>
<event>
12   0  0.1544783E-01  0.1914551E+03  0.7957747E-01  0.1163148E+00
       21   -1    0    0  501  503  0.00000000000E+00  0.00000000000E+00  0.89438107445E+02  0.89438107445E+02  0.00000000000E+00 0. -1.
       21   -1    0    0  503  504  0.00000000000E+00  0.00000000000E+00 -0.53562761234E+03  0.53562761234E+03  0.00000000000E+00 0. -1.
        6    2    1    2  501    0 -0.74510781629E+02  0.29831807334E+02 -0.67529524008E+02  0.20301545536E+03  0.17381957656E+03 0.  0.
       24    2    3    3    0    0  0.18237319056E+02  0.49741220930E+02 -0.43243195353E+02  0.10498224318E+03  0.79652423523E+02 0.  0.
       -6    2    1    2    0  504  0.74510781629E+02 -0.29831807334E+02 -0.37865998089E+03  0.42205026443E+03  0.16822975738E+03 0.  0.
      -24    2    5    5    0    0  0.28432638127E+02 -0.77288578811E+02 -0.18824074604E+03  0.22041466373E+03  0.79787882492E+02 0.  0.
        5    1    3    3  501    0 -0.92748100684E+02 -0.19909413596E+02 -0.24286328655E+02  0.98033212177E+02  0.47000000000E+01 0. -1.
        4    1    4    4  502    0  0.36497268873E+02  0.12343839783E+02  0.76078495102E+01  0.39272132486E+02  0.00000000000E+00 0. -1.
       -3    1    4    4    0  502 -0.18259949818E+02  0.37397381147E+02 -0.50851044863E+02  0.65710110696E+02  0.00000000000E+00 0.  1.
       -5    1    5    5    0  504  0.46078143502E+02  0.47456771477E+02 -0.19041923485E+03  0.20163560069E+03  0.47000000000E+01 0.  1.
       13    1    6    6    0    0  0.49240081570E+02 -0.62209706360E+02 -0.17352542663E+03  0.19080279580E+03  0.00000000000E+00 0. -1.
      -14    1    6    6    0    0 -0.20807443444E+02 -0.15078872451E+02 -0.14715319414E+02  0.29611867934E+02  0.00000000000E+00 0.  1.
</event>
<event>
12   0  0.1544783E-01  0.1816112E+03  0.7957747E-01  0.1171928E+00
       21   -1    0    0  501  503  0.00000000000E+00  0.00000000000E+00  0.12495835963E+03  0.12495835963E+03  0.00000000000E+00 0. -1.
       21   -1    0    0  503  504  0.00000000000E+00  0.00000000000E+00 -0.35976963955E+03  0.35976963955E+03  0.00000000000E+00 0. -1.
        6    2    1    2  501    0 -0.18742897032E+02 -0.47409848082E+02  0.96216680746E+01  0.18021182740E+03  0.17258254939E+03 0.  0.
       24    2    3    3    0    0 -0.57439383912E+02 -0.77057761778E+02  0.34567489866E+02  0.12525001422E+03  0.72494642777E+02 0.  0.
       -6    2    1    2    0  504  0.18742897032E+02  0.47409848082E+02 -0.24443294799E+03  0.30451617179E+03  0.17430904431E+03 0.  0.
      -24    2    5    5    0    0 -0.32647374145E+02  0.30438406033E+02 -0.23152287185E+03  0.24867935702E+03  0.79033124816E+02 0.  0.
        5    1    3    3  501    0  0.38696486880E+02  0.29647913696E+02 -0.24945821792E+02  0.54961813182E+02  0.47000000000E+01 0. -1.
      -13    1    4    4    0    0 -0.52900738682E+01 -0.74157553467E+01 -0.20397306249E+02  0.22338943822E+02  0.00000000000E+00 0.  1.
       14    1    4    4    0    0 -0.52149310044E+02 -0.69642006431E+02  0.54964796115E+02  0.10291107039E+03  0.00000000000E+00 0. -1.
       -5    1    5    5    0  504  0.51390271177E+02  0.16971442049E+02 -0.12910076141E+02  0.55836814762E+02  0.47000000000E+01 0.  1.
        3    1    6    6  502    0  0.77323663305E+01 -0.19815813752E+02 -0.99615791782E+02  0.10186148407E+03  0.00000000000E+00 0. -1.
       -4    1    6    6    0  502 -0.40379740475E+02  0.50254219785E+02 -0.13190708007E+03  0.14681787296E+03  0.00000000000E+00 0.  1.
</event>
<event>
12   0  0.1544783E-01  0.3093979E+03  0.7957747E-01  0.1088967E+00
       21   -1    0    0  501  503  0.00000000000E+00  0.00000000000E+00  0.29153357889E+03  0.29153357889E+03  0.00000000000E+00 0.  1.
       21   -1    0    0  503  504  0.00000000000E+00  0.00000000000E+00 -0.35026453297E+03  0.35026453297E+03  0.00000000000E+00 0.  1.
        6    2    1    2  501    0 -0.16973846003E+03 -0.19258127382E+03 -0.10981063595E+03  0.32821211969E+03  0.17252862923E+03 0.  0.
       24    2    3    3    0    0 -0.11750683619E+03 -0.79141555273E+02 -0.17844409039E+01  0.16301992529E+03  0.80629209908E+02 0.  0.
       -6    2    1    2    0  504  0.16973846003E+03  0.19258127382E+03  0.51079681875E+02  0.31358599218E+03  0.17270885545E+03 0.  0.
      -24    2    5    5    0    0  0.16264639565E+03  0.85443422451E+02  0.46013927344E+02  0.20599152930E+03  0.80998766512E+02 0.  0.
        5    1    3    3  501    0 -0.52231623842E+02 -0.11343971854E+03 -0.10802619505E+03  0.16519219440E+03  0.47000000000E+01 0. -1.
      -11    1    4    4    0    0 -0.10486198998E+03 -0.82447086306E+02  0.22657445171E+02  0.13530306281E+03  0.00000000000E+00 0.  1.
       12    1    4    4    0    0 -0.12644846205E+02  0.33055310338E+01 -0.24441886075E+02  0.27716862482E+02  0.00000000000E+00 0. -1.
       -5    1    5    5    0  504  0.70920643780E+01  0.10713785137E+03  0.50657545313E+01  0.10759446287E+03  0.47000000000E+01 0.  1.
        3    1    6    6  502    0  0.79924701906E+02  0.33076877932E+02 -0.18877886553E+02  0.88534809139E+02  0.00000000000E+00 0. -1.
       -4    1    6    6    0  502  0.82721693744E+02  0.52366544518E+02  0.64891813897E+02  0.11745672016E+03  0.00000000000E+00 0.  1.
</event>
<event>
12   0  0.1544783E-01  0.1840072E+03  0.7957747E-01  0.1169735E+00
       21   -1    0    0  504  503  0.00000000000E+00  0.00000000000E+00  0.29072635353E+03  0.29072635353E+03  0.00000000000E+00 0.  1.
       21   -1    0    0  501  504  0.00000000000E+00  0.00000000000E+00 -0.12565846548E+03  0.12565846548E+03  0.00000000000E+00 0.  1.
        6    2    1    2  501    0 -0.60516481184E+02  0.15827264595E+02  0.25991543272E+02  0.18573169387E+03  0.17293916556E+03 0.  0.
       24    2    3    3    0    0  0.18601453373E+02  0.51660750669E+02  0.47989442457E+01  0.96205705760E+02  0.78852144724E+02 0.  0.
       -6    2    1    2    0  503  0.60516481184E+02 -0.15827264595E+02  0.13907634478E+03  0.23065312514E+03  0.17304880139E+03 0.  0.
      -24    2    5    5    0    0  0.84941996791E+02 -0.54406283532E+02  0.13378182617E+03  0.18444632432E+03  0.77121222991E+02 0.  0.
        5    1    3    3  501    0 -0.79117934557E+02 -0.35833486074E+02  0.21192599026E+02  0.89525988105E+02  0.47000000000E+01 0. -1.
      -13    1    4    4    0    0 -0.21683714070E+02  0.44901297672E+02 -0.13180619365E+02  0.51575563161E+02  0.00000000000E+00 0.  1.
       14    1    4    4    0    0  0.40285167444E+02  0.67594529974E+01  0.17979563611E+02  0.44630142599E+02  0.00000000000E+00 0. -1.
       -5    1    5    5    0  503 -0.24425515608E+02  0.38579018937E+02  0.52945186033E+01  0.46206800821E+02  0.47000000000E+01 0.  1.
        3    1    6    6  502    0  0.41375145781E+01 -0.36531578982E+02  0.15067429069E+02  0.39732892023E+02  0.00000000000E+00 0. -1.
       -4    1    6    6    0  502  0.80804482213E+02 -0.17874704551E+02  0.11871439710E+03  0.14471343230E+03  0.00000000000E+00 0.  1.
</event>
<event>
12   0  0.1544783E-01  0.2492028E+03  0.7957747E-01  0.1121200E+00
       21   -1    0    0  504  503  0.00000000000E+00  0.00000000000E+00  0.11412167796E+03  0.11412167796E+03  0.00000000000E+00 0. -1.
       21   -1    0    0  501  504  0.00000000000E+00  0.00000000000E+00 -0.74694616407E+03  0.74694616407E+03  0.00000000000E+00 0.  1.
        6    2    1    2  501    0  0.16200341873E+03 -0.74995833783E+02 -0.91387782200E+02  0.26503448701E+03  0.17326877909E+03 0.  0.
       24    2    3    3    0    0  0.11819453530E+03 -0.10366807941E+03 -0.24141745093E+02  0.17967972474E+03  0.83576077696E+02 0.  0.
       -6    2    1    2    0  503 -0.16200341873E+03  0.74995833783E+02 -0.54143670391E+03  0.59603335502E+03  0.17387516554E+03 0.  0.
      -24    2    5    5    0    0 -0.28454948091E+02 -0.87146820183E+01 -0.12061275311E+03  0.14663650141E+03  0.77905054907E+02 0.  0.
        5    1    3    3  501    0  0.43808883426E+02  0.28672245625E+02 -0.67246037107E+02  0.85354762274E+02  0.47000000000E+01 0. -1.
      -11    1    4    4    0    0  0.30526140948E+02  0.12084082318E+02 -0.53633844281E+01  0.33266142234E+02  0.00000000000E+00 0.  1.
       12    1    4    4    0    0  0.87668394351E+02 -0.11575216173E+03 -0.18778360665E+02  0.14641358250E+03  0.00000000000E+00 0. -1.
       -5    1    5    5    0  503 -0.13354847063E+03  0.83710515802E+02 -0.42082395080E+03  0.44939685360E+03  0.47000000000E+01 0.  1.
        3    1    6    6  502    0 -0.54111985894E+02  0.26621060524E+01 -0.90460894226E+02  0.10544366842E+03  0.00000000000E+00 0. -1.
       -4    1    6    6    0  502  0.25657037803E+02 -0.11376788071E+02 -0.30151858887E+02  0.41192832993E+02  0.00000000000E+00 0.  1.
</event>
<event>
12   0  0.1544783E-01  0.2109118E+03  0.7957747E-01  0.1147387E+00
       21   -1    0    0  501  503  0.00000000000E+00  0.00000000000E+00  0.75215369700E+03  0.75215369700E+03  0.00000000000E+00 0.  1.
       21   -1    0    0  503  504  0.00000000000E+00  0.00000000000E+00 -0.75602607297E+02  0.75602607297E+02  0.00000000000E+00 0.  1.
        6    2    1    2  501    0  0.10485296011E+03 -0.51629756015E+02  0.53818803873E+03  0.57803991765E+03  0.17556766906E+03 0.  0.
       24    2    3    3    0    0  0.90801971081E+02 -0.17256789145E+02  0.52601380698E+03  0.53867961960E+03  0.70302295195E+02 0.  0.
       -6    2    1    2    0  504 -0.10485296011E+03  0.51629756015E+02  0.13836305097E+03  0.24971638664E+03  0.17191324827E+03 0.  0.
      -24    2    5    5    0    0 -0.19352459109E+02  0.18670763054E+02  0.13552138368E+03  0.15791880518E+03  0.76479987760E+02 0.  0.
        5    1    3    3  501    0  0.14050989034E+02 -0.34372966869E+02  0.12174231744E+02  0.39360298053E+02  0.47000000000E+01 0. -1.
        4    1    4    4  502    0  0.82004947637E+02  0.13866590651E+02  0.35264105772E+03  0.36231589720E+03  0.00000000000E+00 0. -1.
       -3    1    4    4    0  502  0.87970234441E+01 -0.31123379797E+02  0.17337274926E+03  0.17636372239E+03  0.00000000000E+00 0.  1.
       -5    1    5    5    0  504 -0.85500501005E+02  0.32958992961E+02  0.28416672892E+01  0.91797581461E+02  0.47000000000E+01 0.  1.
       11    1    6    6    0    0  0.29038698686E+02  0.14456963542E+01  0.39830729580E+02  0.49313518209E+02  0.00000000000E+00 0. -1.
      -12    1    6    6    0    0 -0.48391157795E+02  0.17225066699E+02  0.95690654103E+02  0.10860528697E+03  0.00000000000E+00 0.  1.
</event>
<event>
12   0  0.1544783E-01  0.2100936E+03  0.7957747E-01  0.1148012E+00
       21   -1    0    0  501  503  0.00000000000E+00  0.00000000000E+00  0.64116290597E+02  0.64116290597E+02  0.00000000000E+00 0.  1.
       21   -1    0    0  503  504  0.00000000000E+00  0.00000000000E+00 -0.71422886913E+03  0.71422886913E+03  0.00000000000E+00 0.  1.
        6    2    1    2  501    0  0.10072555404E+03 -0.34104371735E+02 -0.21729691741E+03  0.29723321327E+03  0.17268725300E+03 0.  0.
       24    2    3    3    0    0  0.36787361983E+02  0.45892465071E+02 -0.88156266452E+02  0.13234845342E+03  0.79278984956E+02 0.  0.
       -6    2    1    2    0  504 -0.10072555404E+03  0.34104371735E+02 -0.43281566112E+03  0.48111194645E+03  0.18119206135E+03 0.  0.
      -24    2    5    5    0    0 -0.10700865048E+03 -0.27778127116E+02 -0.21524397397E+03  0.25477491896E+03  0.79735910201E+02 0.  0.
        5    1    3    3  501    0  0.63938192060E+02 -0.79996836806E+02 -0.12914065096E+03  0.16488475986E+03  0.47000000000E+01 0. -1.
        2    1    4    4  502    0  0.31134831357E+02  0.66382984554E+02 -0.82457658142E+02  0.11034194011E+03  0.00000000000E+00 0. -1.
       -1    1    4    4    0  502  0.56525306267E+01 -0.20490519483E+02 -0.56986083102E+01  0.22006513305E+02  0.00000000000E+00 0.  1.
       -5    1    5    5    0  504  0.62830964363E+01  0.61882498852E+02 -0.21757168716E+03  0.22633702750E+03  0.47000000000E+01 0.  1.
       13    1    6    6    0    0 -0.65385773125E+02 -0.94716843964E+01 -0.19331377724E+03  0.20429201796E+03  0.00000000000E+00 0. -1.
      -14    1    6    6    0    0 -0.41622877354E+02 -0.18306442720E+02 -0.21930196732E+02  0.50482900997E+02  0.00000000000E+00 0.  1.
</event>
<event>
12   0  0.1544783E-01  0.1767448E+03  0.7957747E-01  0.1176497E+00
       21   -1    0    0  501  503  0.00000000000E+00  0.00000000000E+00  0.68016122154E+03  0.68016122154E+03  0.00000000000E+00 0.  1.
       21   -1    0    0  503  504  0.00000000000E+00  0.00000000000E+00 -0.48964818441E+02  0.48964818441E+02  0.00000000000E+00 0.  1.
        6    2    1    2  501    0 -0.31240561438E+02 -0.10540855222E+02  0.40749570708E+03  0.44402826697E+03  0.17326646608E+03 0.  0.
       24    2    3    3    0    0 -0.82569666513E+02 -0.31782889582E+02  0.25817815324E+03  0.28464281300E+03  0.80855861158E+02 0.  0.
       -6    2    1    2    0  504  0.31240561438E+02  0.10540855222E+02  0.22370069601E+03  0.28509777301E+03  0.17364232338E+03 0.  0.
      -24    2    5    5    0    0  0.97536557346E+01 -0.57231552438E+02  0.16743297696E+03  0.19430717568E+03  0.79692486158E+02 0.  0.
        5    1    3    3  501    0  0.51329105075E+02  0.21242034360E+02  0.14931755384E+03  0.15938545397E+03  0.47000000000E+01 0. -1.
        4    1    4    4  502    0 -0.93154906752E+02 -0.10303421591E+02  0.22487606706E+03  0.24362520946E+03  0.00000000000E+00 0. -1.
       -3    1    4    4    0  502  0.10585240239E+02 -0.21479467991E+02  0.33302086178E+02  0.41017603537E+02  0.00000000000E+00 0.  1.
       -5    1    5    5    0  504  0.21486905703E+02  0.67772407659E+02  0.56267719046E+02  0.90790597329E+02  0.47000000000E+01 0.  1.
       13    1    6    6    0    0  0.13086095112E+02 -0.25092613834E+02  0.50577374802E+01  0.28748319302E+02  0.00000000000E+00 0. -1.
      -14    1    6    6    0    0 -0.33324393776E+01 -0.32138938604E+02  0.16237523948E+03  0.16555885638E+03  0.00000000000E+00 0.  1.
</event>
<event>
12   0  0.1544783E-01  0.2248038E+03  0.7957747E-01  0.1137231E+00
       21   -1    0    0  504  503  0.00000000000E+00  0.00000000000E+00  0.46067688257E+03  0.46067688257E+03  0.00000000000E+00 0.  1.
       21   -1    0    0  501  504  0.00000000000E+00  0.00000000000E+00 -0.27410790557E+03  0.27410790557E+03  0.00000000000E+00 0.  1.
        6    2    1    2  501    0  0.74857217117E+02  0.12175839215E+03 -0.19178574098E+03  0.29549708738E+03  0.17351671157E+03 0.  0.
       24    2    3    3    0    0 -0.75105707295E+01  0.58885296784E+02 -0.15788585820E+03  0.18636977344E+03  0.79258194418E+02 0.  0.
       -6    2    1    2    0  503 -0.74857217117E+02 -0.12175839215E+03  0.37835471798E+03  0.43928770076E+03  0.17144294214E+03 0.  0.
      -24    2    5    5    0    0 -0.66530324535E+02 -0.77944517710E+02  0.37195305592E+03  0.39398798762E+03  0.79848773671E+02 0.  0.
        5    1    3    3  501    0  0.82367787847E+02  0.62873095363E+02 -0.33899882781E+02  0.10912731394E+03  0.47000000000E+01 0. -1.
        2    1    4    4  502    0 -0.29463919989E+02  0.23979920031E+02 -0.20997714654E+02  0.43405796462E+02  0.00000000000E+00 0. -1.
       -1    1    4    4    0  502  0.21953349259E+02  0.34905376753E+02 -0.13688814354E+03  0.14296397698E+03  0.00000000000E+00 0.  1.
       -5    1    5    5    0  503 -0.83268925823E+01 -0.43813874437E+02  0.64016620541E+01  0.45299713137E+02  0.47000000000E+01 0.  1.
       11    1    6    6    0    0 -0.46556986824E+02 -0.21305476107E+02  0.73644441587E+02  0.89693813114E+02  0.00000000000E+00 0. -1.
      -12    1    6    6    0    0 -0.19973337711E+02 -0.56639041603E+02  0.29830861433E+03  0.30429417451E+03  0.00000000000E+00 0.  1.
</event>
<event>
12   0  0.1544783E-01  0.2381543E+03  0.7957747E-01  0.1128199E+00
        2   -1    0    0  502    0  0.00000000000E+00  0.00000000000E+00  0.10526479718E+03  0.10526479718E+03  0.00000000000E+00 0. -1.
       -2   -1    0    0    0  501  0.00000000000E+00  0.00000000000E+00 -0.58052866915E+03  0.58052866915E+03  0.00000000000E+00 0.  1.
        6    2    1    2  502    0  0.12894428500E+03 -0.10335942998E+03 -0.14664081847E+03  0.28052995094E+03  0.17286909306E+03 0.  0.
       24    2    3    3    0    0  0.65012940097E+02 -0.53194939948E+02 -0.41655083164E+01  0.11644156950E+03  0.80528899359E+02 0.  0.
       -6    2    1    2    0  501 -0.12894428500E+03  0.10335942998E+03 -0.32862305350E+03  0.40526351538E+03  0.17010468896E+03 0.  0.
      -24    2    5    5    0    0 -0.29444498559E+02  0.92459536772E+02 -0.12641467038E+03  0.17958822790E+03  0.82798057211E+02 0.  0.
        5    1    3    3  502    0  0.63931344903E+02 -0.50164490033E+02 -0.14247531015E+03  0.16408838144E+03  0.47000000000E+01 0. -1.
        2    1    4    4  503    0  0.44619027011E+02  0.91030143212E+01  0.15335885702E+02  0.48051137671E+02  0.00000000000E+00 0. -1.
       -1    1    4    4    0  503  0.20393913086E+02 -0.62297954269E+02 -0.19501394019E+02  0.68390431829E+02  0.00000000000E+00 0.  1.
       -5    1    5    5    0  501 -0.99499786441E+02  0.10899893210E+02 -0.20220838313E+03  0.22567528748E+03  0.47000000000E+01 0.  1.
       11    1    6    6    0    0 -0.48533594759E+02  0.68401347714E+02 -0.50998448297E+02  0.98158524429E+02  0.00000000000E+00 0. -1.
      -12    1    6    6    0    0  0.19089096200E+02  0.24058189058E+02 -0.75416222079E+02  0.81429703469E+02  0.00000000000E+00 0.  1.
</event>
<event>
12   0  0.1544783E-01  0.1923382E+03  0.7957747E-01  0.1162389E+00
       21   -1    0    0  504  503  0.00000000000E+00  0.00000000000E+00  0.27275313837E+03  0.27275313837E+03  0.00000000000E+00 0.  1.
       21   -1    0    0  501  504  0.00000000000E+00  0.00000000000E+00 -0.14080221243E+03  0.14080221243E+03  0.00000000000E+00 0. -1.
        6    2    1    2  501    0 -0.51995902813E+02 -0.70366296950E+02  0.20154255085E+02  0.19108630577E+03  0.16867955596E+03 0.  0.
       24    2    3    3    0    0 -0.69254258154E+02 -0.98514357027E+02 -0.11671598992E+02  0.14498707472E+03  0.79898653312E+02 0.  0.
       -6    2    1    2    0  503  0.51995902813E+02  0.70366296950E+02  0.11179667086E+03  0.22246904503E+03  0.17128628295E+03 0.  0.
      -24    2    5    5    0    0  0.10751775516E+02  0.51421520078E+02 -0.62667521345E+01  0.95894780442E+02  0.79979768253E+02 0.  0.
        5    1    3    3  501    0  0.17258355341E+02  0.28148060077E+02  0.31825854077E+02  0.46099231045E+02  0.47000000000E+01 0. -1.
      -13    1    4    4    0    0  0.13620048077E+02 -0.31292935317E+02  0.11074735870E+02  0.35880402520E+02  0.00000000000E+00 0.  1.
       14    1    4    4    0    0 -0.82874306230E+02 -0.67221421710E+02 -0.22746334862E+02  0.10910667220E+03  0.00000000000E+00 0. -1.
       -5    1    5    5    0  503  0.41244127297E+02  0.18944776872E+02  0.11806342299E+03  0.12657426459E+03  0.47000000000E+01 0.  1.
        1    1    6    6  502    0  0.43739108148E+02  0.37601745119E+02 -0.13883523942E+02  0.59327506728E+02  0.00000000000E+00 0. -1.
       -2    1    6    6    0  502 -0.32987332632E+02  0.13819774959E+02  0.76167718072E+01  0.36567273714E+02  0.00000000000E+00 0.  1.
</event>
<event>
12   0  0.1544783E-01  0.2058260E+03  0.7957747E-01  0.1151321E+00
       21   -1    0    0  501  503  0.00000000000E+00  0.00000000000E+00  0.64033664279E+02  0.64033664279E+02  0.00000000000E+00 0.  1.
       21   -1    0    0  503  504  0.00000000000E+00  0.00000000000E+00 -0.66160756985E+03  0.66160756985E+03  0.00000000000E+00 0. -1.
        6    2    1    2  501    0 -0.95787023638E+02 -0.53975034857E+02 -0.28337929144E+03  0.35024013259E+03  0.17399962463E+03 0.  0.
       24    2    3    3    0    0 -0.49800567828E+02 -0.10103383415E+03 -0.19428278413E+03  0.23938183418E+03  0.82885041650E+02 0.  0.
       -6    2    1    2    0  504  0.95787023638E+02  0.53975034857E+02 -0.31419461413E+03  0.37540110154E+03  0.17354905130E+03 0.  0.
      -24    2    5    5    0    0 -0.10671636679E+02 -0.10325922766E+02 -0.15633675349E+03  0.17438057107E+03  0.75808275030E+02 0.  0.
        5    1    3    3  501    0 -0.45986455810E+02  0.47058799294E+02 -0.89096507316E+02  0.11085829840E+03  0.47000000000E+01 0. -1.
        4    1    4    4  502    0 -0.21997238408E+02 -0.62026814674E+02 -0.17635590797E+03  0.18823551873E+03  0.00000000000E+00 0. -1.
       -3    1    4    4    0  502 -0.27803329420E+02 -0.39007019478E+02 -0.17926876154E+02  0.51146315449E+02  0.00000000000E+00 0.  1.
       -5    1    5    5    0  504  0.10645866032E+03  0.64300957623E+02 -0.15785786064E+03  0.20102053048E+03  0.47000000000E+01 0.  1.
       13    1    6    6    0    0 -0.33457233270E+02  0.11522063476E+02 -0.12495361989E+03  0.12986743829E+03  0.00000000000E+00 0. -1.
      -14    1    6    6    0    0  0.22785596590E+02 -0.21847986242E+02 -0.31383133599E+02  0.44513132773E+02  0.00000000000E+00 0.  1.
</event>
<event>
12   0  0.1544783E-01  0.3437595E+03  0.7957747E-01  0.1073939E+00
       21   -1    0    0  504  503  0.00000000000E+00  0.00000000000E+00  0.81141817587E+03  0.81141817587E+03  0.00000000000E+00 0. -1.
       21   -1    0    0  501  504  0.00000000000E+00  0.00000000000E+00 -0.27442101562E+03  0.27442101562E+03  0.00000000000E+00 0.  1.
        6    2    1    2  501    0 -0.29405487687E+03  0.23628940261E+02 -0.10509748713E+03  0.35751501837E+03  0.17246712479E+03 0.  0.
       24    2    3    3    0    0 -0.23443894073E+03 -0.35471406056E+02 -0.11330303311E+03  0.27303820640E+03  0.74111046845E+02 0.  0.
       -6    2    1    2    0  503  0.29405487687E+03 -0.23628940261E+02  0.64209464739E+03  0.72832417312E+03  0.17647653530E+03 0.  0.
      -24    2    5    5    0    0  0.65995979488E+02  0.35908773635E+02  0.21579965412E+03  0.24118444846E+03  0.77172133109E+02 0.  0.
        5    1    3    3  501    0 -0.59615936142E+02  0.59100346318E+02  0.82055459726E+01  0.84476811976E+02  0.47000000000E+01 0. -1.
        4    1    4    4  502    0 -0.15800810733E+03  0.11572135063E+02 -0.66534663176E+02  0.17183520506E+03  0.00000000000E+00 0. -1.
       -3    1    4    4    0  502 -0.76430833395E+02 -0.47043541120E+02 -0.46768369929E+02  0.10120300134E+03  0.00000000000E+00 0.  1.
       -5    1    5    5    0  503  0.22805889738E+03 -0.59537713896E+02  0.42629499327E+03  0.48713972466E+03  0.47000000000E+01 0.  1.
       11    1    6    6    0    0  0.43292819268E+02 -0.12734492025E+00  0.18122984451E+03  0.18632912000E+03  0.00000000000E+00 0. -1.
      -12    1    6    6    0    0  0.22703160220E+02  0.36036118555E+02  0.34569809605E+02  0.54855328461E+02  0.00000000000E+00 0.  1.
</event>
<event>
12   0  0.1544783E-01  0.1853303E+03  0.7957747E-01  0.1168540E+00
       21   -1    0    0  501  503  0.00000000000E+00  0.00000000000E+00  0.21304070287E+03  0.21304070287E+03  0.00000000000E+00 0.  1.
       21   -1    0    0  503  504  0.00000000000E+00  0.00000000000E+00 -0.27215074807E+03  0.27215074807E+03  0.00000000000E+00 0.  1.
        6    2    1    2  501    0 -0.53495766908E+02  0.96418006014E+01  0.12684404465E+03  0.22265335280E+03  0.17472934056E+03 0.  0.
       24    2    3    3    0    0  0.24277091346E+02  0.44328861156E+02  0.86093002162E+02  0.12813061948E+03  0.80318276441E+02 0.  0.
       -6    2    1    2    0  504  0.53495766908E+02 -0.96418006014E+01 -0.18595408984E+03  0.26253809814E+03  0.17717947977E+03 0.  0.
      -24    2    5    5    0    0  0.25036737014E+02 -0.52497369931E+02 -0.39116850112E+02  0.10687891538E+03  0.80685578272E+02 0.  0.
        5    1    3    3  501    0 -0.77772858254E+02 -0.34687060554E+02  0.40751042489E+02  0.94522733323E+02  0.47000000000E+01 0. -1.
        4    1    4    4  502    0 -0.11078235871E+02  0.43848152871E+02  0.13197543587E+02  0.47112238081E+02  0.00000000000E+00 0. -1.
       -3    1    4    4    0  502  0.35355327218E+02  0.48070828432E+00  0.72895458575E+02  0.81018381396E+02  0.00000000000E+00 0.  1.
       -5    1    5    5    0  504  0.28459029894E+02  0.42855569330E+02 -0.14683723973E+03  0.15565918276E+03  0.47000000000E+01 0.  1.
       11    1    6    6    0    0 -0.17012723141E+02 -0.42463372676E+02  0.38776947866E+01  0.45908684195E+02  0.00000000000E+00 0. -1.
      -12    1    6    6    0    0  0.42049460154E+02 -0.10033997255E+02 -0.42994544898E+02  0.60970231188E+02  0.00000000000E+00 0.  1.
</event>
<event>
12   0  0.1544783E-01  0.1893121E+03  0.7957747E-01  0.1165009E+00
       21   -1    0    0  501  503  0.00000000000E+00  0.00000000000E+00  0.24858698428E+03  0.24858698428E+03  0.00000000000E+00 0.  1.
       21   -1    0    0  503  504  0.00000000000E+00  0.00000000000E+00 -0.16928238155E+03  0.16928238155E+03  0.00000000000E+00 0.  1.
        6    2    1    2  501    0  0.10897244192E+02  0.73327995233E+02  0.12109130390E+03  0.22400035306E+03  0.17325504171E+03 0.  0.
       24    2    3    3    0    0  0.39973985617E+02 -0.34163326140E+01  0.10802322004E+03  0.14076566339E+03  0.80847789504E+02 0.  0.
       -6    2    1    2    0  504 -0.10897244192E+02 -0.73327995233E+02 -0.41786701173E+02  0.19386901277E+03  0.17419334345E+03 0.  0.
      -24    2    5    5    0    0 -0.60046630089E+02 -0.62631701117E+01 -0.46416371347E+02  0.11046111897E+03  0.80014712335E+02 0.  0.
        5    1    3    3  501    0 -0.29076741425E+02  0.76744327847E+02  0.13068083855E+02  0.83234689669E+02  0.47000000000E+01 0. -1.
      -11    1    4    4    0    0  0.13666742195E+02  0.22752690967E+02 -0.55360182053E-02  0.26541756142E+02  0.00000000000E+00 0.  1.
       12    1    4    4    0    0  0.26307243422E+02 -0.26169023581E+02  0.10802875606E+03  0.11422390725E+03  0.00000000000E+00 0. -1.
       -5    1    5    5    0  504  0.49149385897E+02 -0.67064825121E+02  0.46296701741E+01  0.83407893803E+02  0.47000000000E+01 0.  1.
        3    1    6    6  502    0 -0.15607705496E+02  0.12720403105E+02 -0.57464951227E+02  0.60890309127E+02  0.00000000000E+00 0. -1.
       -4    1    6    6    0  502 -0.44438924593E+02 -0.18983573217E+02  0.11048579880E+02  0.49570809843E+02  0.00000000000E+00 0.  1.
</event>
<event>
12   0  0.1544783E-01  0.2017487E+03  0.7957747E-01  0.1154567E+00
       21   -1    0    0  504  503  0.00000000000E+00  0.00000000000E+00  0.37075331761E+03  0.37075331761E+03  0.00000000000E+00 0.  1.
       21   -1    0    0  501  504  0.00000000000E+00  0.00000000000E+00 -0.33993187958E+03  0.33993187958E+03  0.00000000000E+00 0. -1.
        6    2    1    2  501    0 -0.43785759094E+02  0.94224703041E+02 -0.27716932641E+03  0.34249930596E+03  0.17230046930E+03 0.  0.
       24    2    3    3    0    0 -0.27555022609E+02  0.92146005362E+01 -0.54127450580E+02  0.10320884918E+03  0.82934296332E+02 0.  0.
       -6    2    1    2    0  503  0.43785759094E+02 -0.94224703041E+02  0.30799076444E+03  0.36818589123E+03  0.17293655531E+03 0.  0.
      -24    2    5    5    0    0 -0.21786478823E+02  0.42908421522E+01  0.13249156693E+03  0.15646180343E+03  0.80207347789E+02 0.  0.
        5    1    3    3  501    0 -0.16230736484E+02  0.85010102505E+02 -0.22304187583E+03  0.23929045679E+03  0.47000000000E+01 0. -1.
      -13    1    4    4    0    0 -0.14564979381E+02 -0.36866815046E+02 -0.29180129967E+02  0.49221749877E+02  0.00000000000E+00 0.  1.
       14    1    4    4    0    0 -0.12990043228E+02  0.46081415582E+02 -0.24947320613E+02  0.53987099301E+02  0.00000000000E+00 0. -1.
       -5    1    5    5    0  503  0.65572237916E+02 -0.98515545193E+02  0.17549919751E+03  0.21172408780E+03  0.47000000000E+01 0.  1.
        1    1    6    6  502    0  0.25336869610E+02  0.73912174139E+01  0.86902542259E+02  0.90822017747E+02  0.00000000000E+00 0. -1.
       -2    1    6    6    0  502 -0.47123348433E+02 -0.31003752616E+01  0.45589024673E+02  0.65639785686E+02  0.00000000000E+00 0.  1.
</event>
<event>
12   0  0.1544783E-01  0.1950023E+03  0.7957747E-01  0.1160125E+00
       21   -1    0    0  504  503  0.00000000000E+00  0.00000000000E+00  0.51236123367E+03  0.51236123367E+03  0.00000000000E+00 0.  1.
       21   -1    0    0  501  504  0.00000000000E+00  0.00000000000E+00 -0.74456201772E+02  0.74456201772E+02  0.00000000000E+00 0.  1.
        6    2    1    2  501    0  0.52919859131E+01  0.90294686528E+02  0.20138017527E+03  0.28032100642E+03  0.17275634899E+03 0.  0.
       24    2    3    3    0    0 -0.15236941439E+02  0.12609083033E+03  0.13157234591E+03  0.19909278589E+03  0.78712091253E+02 0.  0.
       -6    2    1    2    0  503 -0.52919859131E+01 -0.90294686528E+02  0.23652485663E+03  0.30649642903E+03  0.17266996749E+03 0.  0.
      -24    2    5    5    0    0  0.30867999297E+01 -0.12585795964E+03  0.14308502809E+03  0.20605718369E+03  0.78335709279E+02 0.  0.
        5    1    3    3  501    0  0.20528927353E+02 -0.35796143798E+02  0.69807829359E+02  0.81228220520E+02  0.47000000000E+01 0. -1.
      -13    1    4    4    0    0 -0.14974629652E+02  0.12770345837E+03  0.14024603623E+03  0.19026655904E+03  0.00000000000E+00 0.  1.
       14    1    4    4    0    0 -0.26231178713E+00 -0.16126280391E+01 -0.86736903189E+01  0.88262268504E+01  0.00000000000E+00 0. -1.
       -5    1    5    5    0  503 -0.83787858428E+01  0.35563273115E+02  0.93439828532E+02  0.10043924533E+03  0.47000000000E+01 0.  1.
        3    1    6    6  502    0 -0.50423111818E+01 -0.83919385790E+02  0.13990271161E+03  0.16321965853E+03  0.00000000000E+00 0. -1.
       -4    1    6    6    0  502  0.81291111115E+01 -0.41938573853E+02  0.31823164817E+01  0.42837525167E+02  0.00000000000E+00 0.  1.
</event>
<event>
12   0  0.1544783E-01  0.2140879E+03  0.7957747E-01  0.1144991E+00
       21   -1    0    0  504  503  0.00000000000E+00  0.00000000000E+00  0.40570079490E+03  0.40570079490E+03  0.00000000000E+00 0.  1.
       21   -1    0    0  501  504  0.00000000000E+00  0.00000000000E+00 -0.18929617154E+03  0.18929617154E+03  0.00000000000E+00 0.  1.
        6    2    1    2  501    0  0.99548531132E+02 -0.76916509100E+02 -0.81202248361E+02  0.22838616284E+03  0.17245397883E+03 0.  0.
       24    2    3    3    0    0  0.12689433663E+02 -0.58581862693E+02 -0.96379750800E+02  0.13820241346E+03  0.78854260238E+02 0.  0.
       -6    2    1    2    0  503 -0.99548531132E+02  0.76916509100E+02  0.29760687173E+03  0.36661080361E+03  0.17322693728E+03 0.  0.
      -24    2    5    5    0    0 -0.19882365015E+02 -0.21982045654E+02  0.15425049925E+03  0.17503637502E+03  0.77239868551E+02 0.  0.
        5    1    3    3  501    0  0.86859097468E+02 -0.18334646407E+02  0.15177502439E+02  0.90183749380E+02  0.47000000000E+01 0. -1.
        2    1    4    4  502    0  0.20228227213E+02  0.14345009507E+02 -0.33070062263E+02  0.41335087904E+02  0.00000000000E+00 0. -1.
       -1    1    4    4    0  502 -0.75387935497E+01 -0.72926872201E+02 -0.63309688537E+02  0.96867325553E+02  0.00000000000E+00 0.  1.
       -5    1    5    5    0  503 -0.79666166117E+02  0.98898554754E+02  0.14335637248E+03  0.19157442858E+03  0.47000000000E+01 0.  1.
       13    1    6    6    0    0 -0.32305319309E+02 -0.23066404337E+02  0.28983320963E+02  0.49150031116E+02  0.00000000000E+00 0. -1.
      -14    1    6    6    0    0  0.12422954294E+02  0.10843586826E+01  0.12526717828E+03  0.12588634391E+03  0.00000000000E+00 0.  1.
</event>
<event>
12   0  0.1544783E-01  0.2471415E+03  0.7957747E-01  0.1122475E+00
       21   -1    0    0  504  503  0.00000000000E+00  0.00000000000E+00  0.31911460292E+03  0.31911460292E+03  0.00000000000E+00 0.  1.
       21   -1    0    0  501  504  0.00000000000E+00  0.00000000000E+00 -0.74516140762E+03  0.74516140762E+03  0.00000000000E+00 0. -1.
        6    2    1    2  501    0  0.14960074346E+03 -0.90722312119E+02 -0.67223886750E+03  0.71622901969E+03  0.17455083303E+03 0.  0.
       24    2    3    3    0    0  0.84343556323E+02 -0.17478531471E+02 -0.19209659317E+03  0.22614551102E+03  0.82591503741E+02 0.  0.
       -6    2    1    2    0  503 -0.14960074346E+03  0.90722312119E+02  0.24619206280E+03  0.34804699084E+03  0.17296027201E+03 0.  0.
      -24    2    5    5    0    0 -0.31038995311E+02  0.55493451628E+02  0.50748077469E+02  0.11670654445E+03  0.83678597909E+02 0.  0.
        5    1    3    3  501    0  0.65257187132E+02 -0.73243780648E+02 -0.48014227433E+03  0.49008350868E+03  0.47000000000E+01 0. -1.
        2    1    4    4  502    0  0.60167201773E+02 -0.50185015797E+02 -0.13405949098E+03  0.15527580333E+03  0.00000000000E+00 0. -1.
       -1    1    4    4    0  502  0.24176354551E+02  0.32706484326E+02 -0.58037102193E+02  0.70869707685E+02  0.00000000000E+00 0.  1.
       -5    1    5    5    0  503 -0.11856174815E+03  0.35228860491E+02  0.19544398533E+03  0.23134044639E+03  0.47000000000E+01 0.  1.
       11    1    6    6    0    0 -0.18071906930E+02  0.40056143130E+01  0.60018149231E+02  0.62807778207E+02  0.00000000000E+00 0. -1.
      -12    1    6    6    0    0 -0.12967088380E+02  0.51487837315E+02 -0.92700717625E+01  0.53898766247E+02  0.00000000000E+00 0.  1.
</event>
<event>
12   0  0.1544783E-01  0.1931620E+03  0.7957747E-01  0.1161685E+00
       21   -1    0    0  501  503  0.00000000000E+00  0.00000000000E+00  0.29374353197E+03  0.29374353197E+03  0.00000000000E+00 0. -1.
       21   -1    0    0  503  504  0.00000000000E+00  0.00000000000E+00 -0.13954463256E+03  0.13954463256E+03  0.00000000000E+00 0. -1.
        6    2    1    2  501    0 -0.32001505192E+01  0.45040565876E+02  0.16217980488E+03  0.23996137241E+03  0.17099788771E+03 0.  0.
       24    2    3    3    0    0 -0.44218696554E+02  0.25758633885E+02  0.29522842490E+02  0.99696360059E+02  0.80305452092E+02 0.  0.
       -6    2    1    2    0  504  0.32001505192E+01 -0.45040565876E+02 -0.79809054651E+01  0.19332679212E+03  0.18781017055E+03 0.  0.
      -24    2    5    5    0    0 -0.44620681128E+02 -0.27304674396E+02 -0.65427098551E+02  0.11636219710E+03  0.80764504962E+02 0.  0.
        5    1    3    3  501    0  0.41018546035E+02  0.19281931992E+02  0.13265696239E+03  0.14026501235E+03  0.47000000000E+01 0. -1.
      -11    1    4    4    0    0 -0.40675511580E+02  0.17406126199E+02  0.56195931559E+02  0.71522396460E+02  0.00000000000E+00 0.  1.
       12    1    4    4    0    0 -0.35431849737E+01  0.83525076856E+01 -0.26673089069E+02  0.28173963599E+02  0.00000000000E+00 0. -1.
       -5    1    5    5    0  504  0.47820831647E+02 -0.17735891480E+02  0.57446193086E+02  0.76964595016E+02  0.47000000000E+01 0.  1.
        1    1    6    6  502    0  0.15956546458E+02  0.14732740717E+02 -0.21367511509E+02  0.30466958693E+02  0.00000000000E+00 0. -1.
       -2    1    6    6    0  502 -0.60577227585E+02 -0.42037415114E+02 -0.44059587042E+02  0.85895238411E+02  0.00000000000E+00 0.  1.
</event>
<event>
12   0  0.1544783E-01  0.2395349E+03  0.7957747E-01  0.1127302E+00
       21   -1    0    0  504  503  0.00000000000E+00  0.00000000000E+00  0.20502768182E+03  0.20502768182E+03  0.00000000000E+00 0. -1.
       21   -1    0    0  501  504  0.00000000000E+00  0.00000000000E+00 -0.41873399743E+03  0.41873399743E+03  0.00000000000E+00 0. -1.
        6    2    1    2  501    0  0.16416250004E+03 -0.25372842787E+02 -0.28744639877E+03  0.37416892249E+03  0.17257996066E+03 0.  0.
       24    2    3    3    0    0  0.79878079881E+02 -0.59856133790E+02 -0.89151219486E+02  0.15591212657E+03  0.79983666316E+02 0.  0.
       -6    2    1    2    0  503 -0.16416250004E+03  0.25372842787E+02  0.73740083161E+02  0.24959275675E+03  0.17107260677E+03 0.  0.
      -24    2    5    5    0    0 -0.13049615693E+03  0.76549154807E+02  0.77942031714E+02  0.18801204596E+03  0.79903373162E+02 0.  0.
        5    1    3    3  501    0  0.84284420162E+02  0.34483291003E+02 -0.19829517928E+03  0.21825679592E+03  0.47000000000E+01 0. -1.
      -11    1    4    4    0    0  0.66178950103E+01  0.17189121037E+02 -0.21660041977E+01  0.18545996618E+02  0.00000000000E+00 0.  1.
       12    1    4    4    0    0  0.73260184870E+02 -0.77045254826E+02 -0.86985215288E+02  0.13736612995E+03  0.00000000000E+00 0. -1.
       -5    1    5    5    0  503 -0.33666343116E+02 -0.51176312020E+02 -0.42019485532E+01  0.61580710798E+02  0.47000000000E+01 0.  1.
        1    1    6    6  502    0 -0.13862671736E+03  0.57447713625E+02  0.64874461714E+02  0.16348181045E+03  0.00000000000E+00 0. -1.
       -2    1    6    6    0  502  0.81305604315E+01  0.19101441182E+02  0.13067570000E+02  0.24530235503E+02  0.00000000000E+00 0.  1.
</event>
<event>
12   0  0.1544783E-01  0.2677068E+03  0.7957747E-01  0.1110320E+00
        2   -1    0    0  502    0  0.00000000000E+00  0.00000000000E+00  0.11003346694E+04  0.11003346694E+04  0.00000000000E+00 0.  1.
       -2   -1    0    0    0  501  0.00000000000E+00  0.00000000000E+00 -0.18260864656E+03  0.18260864656E+03  0.00000000000E+00 0. -1.
        6    2    1    2  502    0 -0.39451018304E+02 -0.19995832303E+03 -0.55795085350E+02  0.27321983850E+03  0.17319432672E+03 0.  0.
       24    2    3    3    0    0 -0.54664180137E+02 -0.55720281763E+02  0.13582476338E+02  0.11237398401E+03  0.79690063554E+02 0.  0.
       -6    2    1    2    0  501  0.39451018304E+02  0.19995832303E+03  0.97352110821E+03  0.10097234775E+04  0.17394953013E+03 0.  0.
      -24    2    5    5    0    0  0.28184599588E+02  0.82546772926E+02  0.72320541735E+03  0.73297008656E+03  0.81306400350E+02 0.  0.
        5    1    3    3  502    0  0.15213161833E+02 -0.14423804126E+03 -0.69377561688E+02  0.16084585449E+03  0.47000000000E+01 0. -1.
      -11    1    4    4    0    0 -0.29125233265E+02 -0.58832753772E+02 -0.21312103039E+02  0.69020126521E+02  0.00000000000E+00 0.  1.
       12    1    4    4    0    0 -0.25538946873E+02  0.31124720083E+01  0.34894579377E+02  0.43353857490E+02  0.00000000000E+00 0. -1.
       -5    1    5    5    0  501  0.11266418716E+02  0.11741155010E+03  0.25031569086E+03  0.27675339091E+03  0.47000000000E+01 0.  1.
        1    1    6    6  503    0  0.44118455710E+02  0.12966840435E+02  0.22249876161E+03  0.22720095951E+03  0.00000000000E+00 0. -1.
       -2    1    6    6    0  503 -0.15933856121E+02  0.69579932491E+02  0.50070665573E+03  0.50576912705E+03  0.00000000000E+00 0.  1.
</event>
<event>
12   0  0.1544783E-01  0.1740687E+03  0.7957747E-01  0.1179080E+00
       21   -1    0    0  504  503  0.00000000000E+00  0.00000000000E+00  0.92706516094E+02  0.92706516094E+02  0.00000000000E+00 0.  1.
       21   -1    0    0  501  504  0.00000000000E+00  0.00000000000E+00 -0.48402073562E+03  0.48402073562E+03  0.00000000000E+00 0.  1.
        6    2    1    2  501    0 -0.30722542818E+01 -0.19692082772E+02 -0.36098133846E+03  0.40075860049E+03  0.17292400725E+03 0.  0.
       24    2    3    3    0    0  0.34363046192E+02 -0.42134010836E+02 -0.10730186277E+03  0.14330878355E+03  0.77894954119E+02 0.  0.
       -6    2    1    2    0  503  0.30722542818E+01  0.19692082772E+02 -0.30332881064E+02  0.17596865121E+03  0.17218497515E+03 0.  0.
      -24    2    5    5    0    0 -0.14897537476E+02 -0.90246282065E+01  0.42900057199E+02  0.95143431439E+02  0.83117249119E+02 0.  0.
        5    1    3    3  501    0 -0.37435300474E+02  0.22441928064E+02 -0.25367947569E+03  0.25744981694E+03  0.47000000000E+01 0. -1.
      -11    1    4    4    0    0  0.36339305633E+02  0.11049940415E+02 -0.65167451906E+02  0.75428397205E+02  0.00000000000E+00 0.  1.
       12    1    4    4    0    0 -0.19762594405E+01 -0.53183951251E+02 -0.42134410862E+02  0.67880386347E+02  0.00000000000E+00 0. -1.
       -5    1    5    5    0  503  0.17969791758E+02  0.28716710979E+02 -0.73232938263E+02  0.80825219776E+02  0.47000000000E+01 0.  1.
        1    1    6    6  502    0 -0.66731155989E+01 -0.33942942557E+02 -0.10071258801E+02  0.36028933860E+02  0.00000000000E+00 0. -1.
       -2    1    6    6    0  502 -0.82244218771E+01  0.24918314351E+02  0.52971316000E+02  0.59114497579E+02  0.00000000000E+00 0.  1.
</event>
<event>
12   0  0.1544783E-01  0.2854387E+03  0.7957747E-01  0.1100756E+00
       -1   -1    0    0    0  501  0.00000000000E+00  0.00000000000E+00  0.12497528390E+03  0.12497528390E+03  0.00000000000E+00 0.  1.
        1   -1    0    0  502    0  0.00000000000E+00  0.00000000000E+00 -0.67377749700E+03  0.67377749700E+03  0.00000000000E+00 0. -1.
        6    2    1    2  502    0 -0.14907794508E+03 -0.17505242117E+03 -0.20430624295E+03  0.35257620806E+03  0.17234081850E+03 0.  0.
       24    2    3    3    0    0 -0.17011016847E+03 -0.17948307437E+03 -0.20431210555E+03  0.33057450034E+03  0.79902568180E+02 0.  0.
       -6    2    1    2    0  501  0.14907794508E+03  0.17505242117E+03 -0.34449597016E+03  0.44617657284E+03  0.16591707817E+03 0.  0.
      -24    2    5    5    0    0  0.17076584215E+03  0.15771994872E+03 -0.33716211205E+03  0.41707923696E+03  0.78995221606E+02 0.  0.
        5    1    3    3  502    0  0.21032223383E+02  0.44306532006E+01  0.58626080653E-02  0.22001707720E+02  0.47000000000E+01 0. -1.
      -11    1    4    4    0    0 -0.99967383601E+02 -0.15191277663E+03 -0.16508930041E+03  0.24561239097E+03  0.00000000000E+00 0.  1.
       12    1    4    4    0    0 -0.70142784866E+02 -0.27570297734E+02 -0.39222805146E+02  0.84962109375E+02  0.00000000000E+00 0. -1.
       -5    1    5    5    0  501 -0.21687897065E+02  0.17332472446E+02 -0.73338581102E+01  0.29097335874E+02  0.47000000000E+01 0.  1.
        3    1    6    6  503    0  0.85828349650E+02  0.95983274290E+02 -0.12067289323E+03  0.17646881228E+03  0.00000000000E+00 0. -1.
       -4    1    6    6    0  503  0.84937492499E+02  0.61736674430E+02 -0.21648921882E+03  0.24061042469E+03  0.00000000000E+00 0.  1.
</event>
<event>
12   0  0.1544783E-01  0.2300277E+03  0.7957747E-01  0.1133617E+00
       21   -1    0    0  504  503  0.00000000000E+00  0.00000000000E+00  0.11119774638E+04  0.11119774638E+04  0.00000000000E+00 0.  1.
       21   -1    0    0  501  504  0.00000000000E+00  0.00000000000E+00 -0.53917502377E+02  0.53917502377E+02  0.00000000000E+00 0.  1.
        6    2    1    2  501    0 -0.10898169192E+03  0.10384477921E+03  0.32256866904E+03  0.39527171930E+03  0.17183840806E+03 0.  0.
       24    2    3    3    0    0 -0.12556367160E+03  0.34528017193E+02  0.24902129003E+03  0.29274814881E+03  0.82045451704E+02 0.  0.
       -6    2    1    2    0  503  0.10898169192E+03 -0.10384477921E+03  0.73549129243E+03  0.77062324693E+03  0.17393102117E+03 0.  0.
      -24    2    5    5    0    0  0.16140561199E+02 -0.52953828028E+02  0.24942002721E+03  0.27313281553E+03  0.96574113123E+02 0.  0.
        5    1    3    3  501    0  0.16581979676E+02  0.69316762016E+02  0.73547379013E+02  0.10252357049E+03  0.47000000000E+01 0. -1.
      -11    1    4    4    0    0 -0.25282306219E+02  0.33921866843E+02  0.30012144860E+02  0.51871156696E+02  0.00000000000E+00 0.  1.
       12    1    4    4    0    0 -0.10028136538E+03  0.60615034977E+00  0.21900914517E+03  0.24087699211E+03  0.00000000000E+00 0. -1.
       -5    1    5    5    0  503  0.92841130720E+02 -0.50890951181E+02  0.48607126522E+03  0.49749043140E+03  0.47000000000E+01 0.  1.
        1    1    6    6  502    0 -0.24165319035E+02  0.34114047674E+01  0.14984896758E+03  0.15182329667E+03  0.00000000000E+00 0. -1.
       -2    1    6    6    0  502  0.40305880235E+02 -0.56365232796E+02  0.99571059627E+02  0.12130951885E+03  0.00000000000E+00 0.  1.
</event>
<event>
12   0  0.1544783E-01  0.1917694E+03  0.7957747E-01  0.1162877E+00
       21   -1    0    0  501  503  0.00000000000E+00  0.00000000000E+00  0.64683316968E+03  0.64683316968E+03  0.00000000000E+00 0.  1.
       21   -1    0    0  503  504  0.00000000000E+00  0.00000000000E+00 -0.77517129790E+02  0.77517129790E+02  0.00000000000E+00 0. -1.
        6    2    1    2  501    0 -0.17214813736E+02 -0.83481165396E+02  0.47508536788E+03  0.51232958161E+03  0.17178486149E+03 0.  0.
       24    2    3    3    0    0 -0.58365535840E+02 -0.79603627181E+01  0.32366693096E+03  0.33812738127E+03  0.78102116595E+02 0.  0.
       -6    2    1    2    0  504  0.17214813736E+02  0.83481165396E+02  0.94230672013E+02  0.21202071786E+03  0.16972893232E+03 0.  0.
      -24    2    5    5    0    0 -0.38551974636E+02  0.16794827363E+02  0.65928194622E+01  0.88491427545E+02  0.77581869699E+02 0.  0.
        5    1    3    3  501    0  0.41150722104E+02 -0.75520802678E+02  0.15141843691E+03  0.17420220034E+03  0.47000000000E+01 0. -1.
      -11    1    4    4    0    0 -0.29934719394E+02 -0.34152224611E+02  0.85203333540E+02  0.96550866995E+02  0.00000000000E+00 0.  1.
       12    1    4    4    0    0 -0.28430816446E+02  0.26191861893E+02  0.23846359742E+03  0.24157651428E+03  0.00000000000E+00 0. -1.
       -5    1    5    5    0  504  0.55766788372E+02  0.66686338034E+02  0.87637852551E+02  0.12352929031E+03  0.47000000000E+01 0.  1.
        1    1    6    6  502    0 -0.11151438899E+02  0.27215846509E+02  0.36323796111E+02  0.46738368121E+02  0.00000000000E+00 0. -1.
       -2    1    6    6    0  502 -0.27400535737E+02 -0.10421019146E+02 -0.29730976649E+02  0.41753059423E+02  0.00000000000E+00 0.  1.
</event>
<event>
12   0  0.1544783E-01  0.1763962E+03  0.7957747E-01  0.1176831E+00
       21   -1    0    0  501  503  0.00000000000E+00  0.00000000000E+00  0.73834942327E+03  0.73834942327E+03  0.00000000000E+00 0.  1.
       21   -1    0    0  503  504  0.00000000000E+00  0.00000000000E+00 -0.39670892866E+02  0.39670892866E+02  0.00000000000E+00 0.  1.
        6    2    1    2  501    0 -0.37394658065E+02 -0.17643474918E+02  0.31270516722E+03  0.35364895852E+03  0.15991688966E+03 0.  0.
       24    2    3    3    0    0 -0.36297511876E+02  0.13493763942E+02  0.82895915781E+02  0.12168966593E+03  0.80231233983E+02 0.  0.
       -6    2    1    2    0  504  0.37394658065E+02  0.17643474918E+02  0.38597336319E+03  0.42437135762E+03  0.17148165913E+03 0.  0.
      -24    2    5    5    0    0 -0.38631213717E+02  0.26312697295E+01  0.14708780749E+03  0.17318676772E+03  0.82822334821E+02 0.  0.
        5    1    3    3  501    0 -0.10971461887E+01 -0.31137238860E+02  0.22980925144E+03  0.23195929259E+03  0.47000000000E+01 0. -1.
        4    1    4    4  502    0 -0.15141975679E+02 -0.33191545913E+02  0.24270973764E+02  0.43818241806E+02  0.00000000000E+00 0. -1.
       -3    1    4    4    0  502 -0.21155536198E+02  0.46685309855E+02  0.58624942017E+02  0.77871424121E+02  0.00000000000E+00 0.  1.
       -5    1    5    5    0  504  0.76025871782E+02  0.15012205188E+02  0.23888555569E+03  0.25118458990E+03  0.47000000000E+01 0.  1.
       11    1    6    6    0    0 -0.39140966715E+02  0.37225197166E+02  0.10951181962E+03  0.12210884168E+03  0.00000000000E+00 0. -1.
      -12    1    6    6    0    0  0.50975299850E+00 -0.34593927437E+02  0.37575987871E+02  0.51077926036E+02  0.00000000000E+00 0.  1.
</event>
<event>
12   0  0.1544783E-01  0.1743424E+03  0.7957747E-01  0.1178813E+00
       21   -1    0    0  504  503  0.00000000000E+00  0.00000000000E+00  0.29759500912E+03  0.29759500912E+03  0.00000000000E+00 0. -1.
       21   -1    0    0  501  504  0.00000000000E+00  0.00000000000E+00 -0.15567310763E+03  0.15567310763E+03  0.00000000000E+00 0. -1.
        6    2    1    2  501    0 -0.24814392974E+02  0.30601026232E+01 -0.68830160531E+02  0.17975085936E+03  0.16415743089E+03 0.  0.
       24    2    3    3    0    0  0.13979832288E+02 -0.44721959324E+02 -0.29055041521E+01  0.89438802161E+02  0.76127314552E+02 0.  0.
       -6    2    1    2    0  503  0.24814392974E+02 -0.30601026232E+01  0.21075206203E+03  0.27351725738E+03  0.17254025649E+03 0.  0.
      -24    2    5    5    0    0  0.81791742569E+02  0.63191074916E+00  0.16243288760E+03  0.19857139728E+03  0.79723700233E+02 0.  0.
        5    1    3    3  501    0 -0.38794225263E+02  0.47782061947E+02 -0.65924656379E+02  0.90312057203E+02  0.47000000000E+01 0. -1.
      -13    1    4    4    0    0 -0.27109917528E+02  0.26197156174E+00 -0.80915941812E+01  0.28292934699E+02  0.00000000000E+00 0.  1.
       14    1    4    4    0    0  0.41089749816E+02 -0.44983930886E+02  0.51860900292E+01  0.61145867462E+02  0.00000000000E+00 0. -1.
       -5    1    5    5    0  503 -0.56977349595E+02 -0.36920133723E+01  0.48319174426E+02  0.74945860105E+02  0.47000000000E+01 0.  1.
        3    1    6    6  502    0  0.25451986155E+01 -0.21309290767E+02  0.67329405485E+01  0.22492140792E+02  0.00000000000E+00 0. -1.
       -4    1    6    6    0  502  0.79246543954E+02  0.21941201516E+02  0.15569994705E+03  0.17607925649E+03  0.00000000000E+00 0.  1.
</event>
<event>
12   0  0.1544783E-01  0.2012120E+03  0.7957747E-01  0.1155000E+00
       21   -1    0    0  501  503  0.00000000000E+00  0.00000000000E+00  0.17737055397E+03  0.17737055397E+03  0.00000000000E+00 0. -1.
       21   -1    0    0  503  504  0.00000000000E+00  0.00000000000E+00 -0.57664750129E+03  0.57664750129E+03  0.00000000000E+00 0. -1.
        6    2    1    2  501    0  0.13207311203E+02  0.98877350200E+02  0.94010960392E+02  0.22209080996E+03  0.17474296479E+03 0.  0.
       24    2    3    3    0    0  0.64409131406E+02  0.50083640232E+02  0.34539381179E+02  0.12956291547E+03  0.94533977947E+02 0.  0.
       -6    2    1    2    0  504 -0.13207311203E+02 -0.98877350200E+02 -0.49328790772E+03  0.53192724530E+03  0.17222796212E+03 0.  0.
      -24    2    5    5    0    0 -0.33938327431E+01 -0.10670475107E+01 -0.33886090012E+03  0.34880720175E+03  0.82626252938E+02 0.  0.
        5    1    3    3  501    0 -0.51201820203E+02  0.48793709968E+02  0.59471579214E+02  0.92527894490E+02  0.47000000000E+01 0. -1.
      -13    1    4    4    0    0 -0.45163123208E+00 -0.13389729556E+02  0.36405610906E+02  0.38792490688E+02  0.00000000000E+00 0.  1.
       14    1    4    4    0    0  0.64860762639E+02  0.63473369788E+02 -0.18662297275E+01  0.90770424785E+02  0.00000000000E+00 0. -1.
       -5    1    5    5    0  504 -0.98134784599E+01 -0.97810302689E+02 -0.15442700760E+03  0.18312004354E+03  0.47000000000E+01 0.  1.
        3    1    6    6  502    0  0.25986203507E+02  0.22678465051E+02 -0.24828817832E+03  0.25067232604E+03  0.00000000000E+00 0. -1.
       -4    1    6    6    0  502 -0.29380036250E+02 -0.23745512562E+02 -0.90572721800E+02  0.98134875712E+02  0.00000000000E+00 0.  1.
</event>
<event>
12   0  0.1544783E-01  0.2251608E+03  0.7957747E-01  0.1136981E+00
        1   -1    0    0  502    0  0.00000000000E+00  0.00000000000E+00  0.17544714745E+03  0.17544714745E+03  0.00000000000E+00 0. -1.
       -1   -1    0    0    0  501  0.00000000000E+00  0.00000000000E+00 -0.53215467676E+03  0.53215467676E+03  0.00000000000E+00 0.  1.
        6    2    1    2  502    0  0.77176724568E+02 -0.12552745019E+03  0.60783152663E+02  0.23330665954E+03  0.17036436884E+03 0.  0.
       24    2    3    3    0    0  0.50851424140E+02 -0.52269804618E+02 -0.31396643809E+02  0.11256350671E+03  0.79792192522E+02 0.  0.
       -6    2    1    2    0  501 -0.77176724568E+02  0.12552745019E+03 -0.41749068198E+03  0.47429516468E+03  0.17012949812E+03 0.  0.
      -24    2    5    5    0    0 -0.91085289457E+02  0.33010431171E+02 -0.29196215380E+03  0.31766710726E+03  0.79273408264E+02 0.  0.
        5    1    3    3  502    0  0.26325300428E+02 -0.73257645574E+02  0.92179796472E+02  0.12074315283E+03  0.47000000000E+01 0. -1.
      -13    1    4    4    0    0  0.65290498506E+02 -0.23316574050E+02 -0.28038512939E+01  0.69385685863E+02  0.00000000000E+00 0.  1.
       14    1    4    4    0    0 -0.14439074366E+02 -0.28953230568E+02 -0.28592792515E+02  0.43177820843E+02  0.00000000000E+00 0. -1.
       -5    1    5    5    0  501  0.13908564888E+02  0.92517019020E+02 -0.12552852817E+03  0.15662805742E+03  0.47000000000E+01 0.  1.
        1    1    6    6  503    0 -0.54961233455E+02  0.19448572878E+02 -0.64452822857E+02  0.86908863438E+02  0.00000000000E+00 0. -1.
       -2    1    6    6    0  503 -0.36124056001E+02  0.13561858293E+02 -0.22750933095E+03  0.23075824382E+03  0.00000000000E+00 0.  1.
</event>
<event>
12   0  0.1544783E-01  0.2202378E+03  0.7957747E-01  0.1140478E+00
       21   -1    0    0  504  503  0.00000000000E+00  0.00000000000E+00  0.53393858090E+03  0.53393858090E+03  0.00000000000E+00 0. -1.
       21   -1    0    0  501  504  0.00000000000E+00  0.00000000000E+00 -0.91946638463E+02  0.91946638463E+02  0.00000000000E+00 0.  1.
        6    2    1    2  501    0 -0.81410087060E+02  0.10949934637E+03  0.25724332573E+03  0.33864259304E+03  0.17287847773E+03 0.  0.
       24    2    3    3    0    0 -0.61526496679E+02 -0.32679242873E+01  0.82903103547E+02  0.13000794212E+03  0.78949042510E+02 0.  0.
       -6    2    1    2    0  503  0.81410087060E+02 -0.10949934637E+03  0.18474861671E+03  0.28724262632E+03  0.17250671253E+03 0.  0.
      -24    2    5    5    0    0  0.86990443476E+02 -0.54242972351E+02  0.19095200282E+03  0.23116251178E+03  0.80397774636E+02 0.  0.
        5    1    3    3  501    0 -0.19883590382E+02  0.11276727065E+03  0.17434022218E+03  0.20863465093E+03  0.47000000000E+01 0. -1.
        4    1    4    4  502    0 -0.51652042464E+02  0.33822948913E+02  0.52443265300E+02  0.81007539397E+02  0.00000000000E+00 0. -1.
       -3    1    4    4    0  502 -0.98744542148E+01 -0.37090873200E+02  0.30459838246E+02  0.49000402720E+02  0.00000000000E+00 0.  1.
       -5    1    5    5    0  503 -0.55803564159E+01 -0.55256374014E+02 -0.62033861146E+01  0.56080114534E+02  0.47000000000E+01 0.  1.
       13    1    6    6    0    0  0.64962166319E+02 -0.75547434901E+02  0.14587532744E+03  0.17665533994E+03  0.00000000000E+00 0. -1.
      -14    1    6    6    0    0  0.22028277157E+02  0.21304462550E+02  0.45076675387E+02  0.54507171849E+02  0.00000000000E+00 0.  1.
</event>
<event>
12   0  0.1544783E-01  0.1865121E+03  0.7957747E-01  0.1167482E+00
       21   -1    0    0  504  503  0.00000000000E+00  0.00000000000E+00  0.15887323831E+03  0.15887323831E+03  0.00000000000E+00 0.  1.
       21   -1    0    0  501  504  0.00000000000E+00  0.00000000000E+00 -0.25174546311E+03  0.25174546311E+03  0.00000000000E+00 0.  1.
        6    2    1    2  501    0  0.42099745909E+02 -0.55789803612E+02  0.28022365902E+02  0.18860540989E+03  0.17292153382E+03 0.  0.
       24    2    3    3    0    0 -0.38085053355E+02 -0.50913504328E+02  0.35594461155E+02  0.10777962840E+03  0.79415530099E+02 0.  0.
       -6    2    1    2    0  503 -0.42099745909E+02  0.55789803612E+02 -0.12089459070E+03  0.22201329152E+03  0.17259637528E+03 0.  0.
      -24    2    5    5    0    0 -0.68765767844E+02 -0.10618586521E+02 -0.36821201403E+02  0.11150729262E+03  0.78972085117E+02 0.  0.
        5    1    3    3  501    0  0.80184799264E+02 -0.48762992840E+01 -0.75720952528E+01  0.80825781495E+02  0.47000000000E+01 0. -1.
      -11    1    4    4    0    0  0.11548005900E+02  0.64821693422E+01  0.28674953715E+02  0.31585248617E+02  0.00000000000E+00 0.  1.
       12    1    4    4    0    0 -0.49633059255E+02 -0.57395673670E+02  0.69195074396E+01  0.76194379782E+02  0.00000000000E+00 0. -1.
       -5    1    5    5    0  503  0.26666021935E+02  0.66408390133E+02 -0.84073389295E+02  0.11050599890E+03  0.47000000000E+01 0.  1.
        3    1    6    6  502    0  0.95136368200E+01 -0.19278573134E+02  0.53731838314E+01  0.22159507488E+02  0.00000000000E+00 0. -1.
       -4    1    6    6    0  502 -0.78279404664E+02  0.86599866127E+01 -0.42194385234E+02  0.89347785132E+02  0.00000000000E+00 0.  1.
</event>
<event>
12   0  0.1544783E-01  0.2284039E+03  0.7957747E-01  0.1134729E+00
       21   -1    0    0  501  503  0.00000000000E+00  0.00000000000E+00  0.43439049583E+03  0.43439049583E+03  0.00000000000E+00 0.  1.
       21   -1    0    0  503  504  0.00000000000E+00  0.00000000000E+00 -0.18881303720E+03  0.18881303720E+03  0.00000000000E+00 0.  1.
        6    2    1    2  501    0  0.53801189277E+02  0.11351332249E+03  0.31824690427E+03  0.38351789490E+03  0.17327735362E+03 0.  0.
       24    2    3    3    0    0  0.83062766326E+01  0.18130975268E+02  0.23279344362E+03  0.24753273697E+03  0.81743146407E+02 0.  0.
       -6    2    1    2    0  504 -0.53801189277E+02 -0.11351332249E+03 -0.72669445637E+02  0.23968563813E+03  0.19075773758E+03 0.  0.
      -24    2    5    5    0    0 -0.19662525828E+02 -0.28086356030E+02 -0.11007421668E+03  0.14026520845E+03  0.79890783001E+02 0.  0.
        5    1    3    3  501    0  0.45494912644E+02  0.95382347226E+02  0.85453460654E+02  0.13598515793E+03  0.47000000000E+01 0. -1.
        2    1    4    4  502    0 -0.93597258672E+01 -0.21432598960E+02  0.16779117204E+03  0.16941321726E+03  0.00000000000E+00 0. -1.
       -1    1    4    4    0  502  0.17666002500E+02  0.39563574228E+02  0.65002271576E+02  0.78119519712E+02  0.00000000000E+00 0.  1.
       -5    1    5    5    0  504 -0.34138663448E+02 -0.85426966464E+02  0.37404771038E+02  0.99420429680E+02  0.47000000000E+01 0.  1.
       13    1    6    6    0    0 -0.52225049350E+01 -0.11332501613E+02  0.11335017170E+02  0.16857721224E+02  0.00000000000E+00 0. -1.
      -14    1    6    6    0    0 -0.14440020893E+02 -0.16753854416E+02 -0.12140923385E+03  0.12340748723E+03  0.00000000000E+00 0.  1.
</event>
<event>
12   0  0.1544783E-01  0.1952956E+03  0.7957747E-01  0.1159879E+00
       21   -1    0    0  504  503  0.00000000000E+00  0.00000000000E+00  0.29630191355E+03  0.29630191355E+03  0.00000000000E+00 0. -1.
       21   -1    0    0  501  504  0.00000000000E+00  0.00000000000E+00 -0.12872749932E+03  0.12872749932E+03  0.00000000000E+00 0.  1.
        6    2    1    2  501    0  0.77359296725E+02  0.35736389981E+02  0.11184708333E+03  0.22505584922E+03  0.17572368895E+03 0.  0.
       24    2    3    3    0    0  0.63183849614E+02 -0.37919997522E+02  0.28653602382E+02  0.11294228183E+03  0.80652371511E+02 0.  0.
       -6    2    1    2    0  503 -0.77359296725E+02 -0.35736389981E+02  0.55727330896E+02  0.19997356366E+03  0.17211141855E+03 0.  0.
      -24    2    5    5    0    0 -0.74051185953E+02 -0.73711765427E+02  0.80146776686E+02  0.15446013630E+03  0.80730572831E+02 0.  0.
        5    1    3    3  501    0  0.14175447110E+02  0.73656387503E+02  0.83193480951E+02  0.11211356739E+03  0.47000000000E+01 0. -1.
        2    1    4    4  502    0  0.25496536876E+02 -0.47993649301E+02  0.45085116170E+02  0.70612544678E+02  0.00000000000E+00 0. -1.
       -1    1    4    4    0  502  0.37687312739E+02  0.10073651780E+02 -0.16431513787E+02  0.42329737147E+02  0.00000000000E+00 0.  1.
       -5    1    5    5    0  503 -0.33081107716E+01  0.37975375445E+02 -0.24419445791E+02  0.45513427357E+02  0.47000000000E+01 0.  1.
       11    1    6    6    0    0 -0.84889955907E+01  0.12868094696E+02  0.32289522545E+02  0.35780779385E+02  0.00000000000E+00 0. -1.
      -12    1    6    6    0    0 -0.65562190362E+02 -0.86579860123E+02  0.47857254141E+02  0.11867935692E+03  0.00000000000E+00 0.  1.
</event>
<event>
12   0  0.1544783E-01  0.2225125E+03  0.7957747E-01  0.1138850E+00
        2   -1    0    0  502    0  0.00000000000E+00  0.00000000000E+00  0.16028691482E+03  0.16028691482E+03  0.00000000000E+00 0.  1.
       -2   -1    0    0    0  501  0.00000000000E+00  0.00000000000E+00 -0.31290142249E+03  0.31290142249E+03  0.00000000000E+00 0. -1.
        6    2    1    2  502    0  0.78974660334E+02  0.11570627234E+03 -0.49524693422E+02  0.22792764285E+03  0.17283916421E+03 0.  0.
       24    2    3    3    0    0  0.11050718348E+03  0.12075549741E+03 -0.62335072241E+02  0.19320026900E+03  0.81528859647E+02 0.  0.
       -6    2    1    2    0  501 -0.78974660334E+02 -0.11570627234E+03 -0.10308981425E+03  0.24526069446E+03  0.17291720565E+03 0.  0.
      -24    2    5    5    0    0  0.15881674656E+02 -0.44567717034E+02 -0.83481522561E+02  0.12499019333E+03  0.80092913720E+02 0.  0.
        5    1    3    3  502    0 -0.31532523142E+02 -0.50492250660E+01  0.12810378820E+02  0.34727373857E+02  0.47000000000E+01 0. -1.
      -13    1    4    4    0    0  0.10794330405E+03  0.12785360765E+03 -0.43469526238E+02  0.17288117766E+03  0.00000000000E+00 0.  1.
       14    1    4    4    0    0  0.25638794242E+01 -0.70981102416E+01 -0.18865546003E+02  0.20319091335E+02  0.00000000000E+00 0. -1.
       -5    1    5    5    0  501 -0.94856334990E+02 -0.71138555305E+02 -0.19608291692E+02  0.12027050113E+03  0.47000000000E+01 0.  1.
        1    1    6    6  503    0 -0.13182342354E+02 -0.53048566154E+02 -0.76324847400E+02  0.93879746759E+02  0.00000000000E+00 0. -1.
       -2    1    6    6    0  503  0.29064017010E+02  0.84808491196E+01 -0.71566751616E+01  0.31110446572E+02  0.00000000000E+00 0.  1.
</event>
<event>
12   0  0.1544783E-01  0.2233290E+03  0.7957747E-01  0.1138271E+00
       21   -1    0    0  501  503  0.00000000000E+00  0.00000000000E+00  0.73794505541E+03  0.73794505541E+03  0.00000000000E+00 0. -1.
       21   -1    0    0  503  504  0.00000000000E+00  0.00000000000E+00 -0.75241781789E+02  0.75241781789E+02  0.00000000000E+00 0. -1.
        6    2    1    2  501    0  0.11747287881E+03  0.75942197860E+02  0.46432077254E+03  0.51523742177E+03  0.17409401570E+03 0.  0.
       24    2    3    3    0    0  0.24576143631E+02 -0.23938868520E+02  0.17755516064E+03  0.19764863576E+03  0.79762722410E+02 0.  0.
       -6    2    1    2    0  504 -0.11747287881E+03 -0.75942197860E+02  0.19838250108E+03  0.29794941543E+03  0.17277483252E+03 0.  0.
      -24    2    5    5    0    0 -0.52466916082E+02 -0.10233738534E+03  0.17433536317E+03  0.22363363007E+03  0.79959139115E+02 0.  0.
        5    1    3    3  501    0  0.92896735174E+02  0.99881066380E+02  0.28676561190E+03  0.31758878601E+03  0.47000000000E+01 0. -1.
        2    1    4    4  502    0 -0.87648674206E+01 -0.28850340135E+02  0.15302056545E+03  0.15596300355E+03  0.00000000000E+00 0. -1.
       -1    1    4    4    0  502  0.33341011052E+02  0.49114716152E+01  0.24534595191E+02  0.41685632208E+02  0.00000000000E+00 0.  1.
       -5    1    5    5    0  504 -0.65005962724E+02  0.26395187480E+02  0.24047137912E+02  0.74315785359E+02  0.47000000000E+01 0.  1.
       13    1    6    6    0    0 -0.13106661551E+02 -0.30959523834E+02  0.28234237071E+01  0.33737937318E+02  0.00000000000E+00 0. -1.
      -14    1    6    6    0    0 -0.39360254531E+02 -0.71377861506E+02  0.17151193946E+03  0.18989569276E+03  0.00000000000E+00 0.  1.
</event>
<event>
12   0  0.1544783E-01  0.1936394E+03  0.7957747E-01  0.1161278E+00
       21   -1    0    0  504  503  0.00000000000E+00  0.00000000000E+00  0.66019850334E+03  0.66019850334E+03  0.00000000000E+00 0. -1.
       21   -1    0    0  501  504  0.00000000000E+00  0.00000000000E+00 -0.54392353551E+02  0.54392353551E+02  0.00000000000E+00 0.  1.
        6    2    1    2  501    0 -0.25406073740E+02  0.82166064340E+02  0.37088143434E+03  0.41838886377E+03  0.17349199485E+03 0.  0.
       24    2    3    3    0    0 -0.80645268476E+02  0.68881697962E+02  0.29124283704E+03  0.32044888621E+03  0.81343413388E+02 0.  0.
       -6    2    1    2    0  503  0.25406073740E+02 -0.82166064340E+02  0.23492471545E+03  0.29620199312E+03  0.15858520766E+03 0.  0.
      -24    2    5    5    0    0  0.66458736550E+02 -0.28044218761E+02  0.17525431017E+03  0.20566392069E+03  0.79876987753E+02 0.  0.
        5    1    3    3  501    0  0.55239194736E+02  0.13284366378E+02  0.79638597296E+02  0.97939977560E+02  0.47000000000E+01 0. -1.
        4    1    4    4  502    0 -0.38909781223E+02  0.48264292768E+02  0.66419039503E+02  0.90856490355E+02  0.00000000000E+00 0. -1.
       -3    1    4    4    0  502 -0.41735487253E+02  0.20617405195E+02  0.22482379754E+03  0.22959239585E+03  0.00000000000E+00 0.  1.
       -5    1    5    5    0  503 -0.41052662809E+02 -0.54121845579E+02  0.59670405278E+02  0.90538072427E+02  0.47000000000E+01 0.  1.
       11    1    6    6    0    0  0.21633593166E+02 -0.20852753402E+02  0.15145258933E+03  0.15440445749E+03  0.00000000000E+00 0. -1.
      -12    1    6    6    0    0  0.44825143384E+02 -0.71914653592E+01  0.23801720845E+02  0.51259463210E+02  0.00000000000E+00 0.  1.
</event>
<event>
12   0  0.1544783E-01  0.2356149E+03  0.7957747E-01  0.1129867E+00
       21   -1    0    0  501  503  0.00000000000E+00  0.00000000000E+00  0.12937271258E+04  0.12937271258E+04  0.00000000000E+00 0. -1.
       21   -1    0    0  503  504  0.00000000000E+00  0.00000000000E+00 -0.43789526726E+02  0.43789526726E+02  0.00000000000E+00 0.  1.
        6    2    1    2  501    0  0.72472237528E+02 -0.13631801490E+03  0.50353239536E+03  0.55593098789E+03  0.17798753812E+03 0.  0.
       24    2    3    3    0    0  0.34931177818E+01 -0.79122212869E+02  0.12415751564E+03  0.16608888128E+03  0.76797795229E+02 0.  0.
       -6    2    1    2    0  504 -0.72472237528E+02  0.13631801490E+03  0.74640520377E+03  0.78158566469E+03  0.17297571111E+03 0.  0.
      -24    2    5    5    0    0 -0.81868548467E+02  0.23071338581E+02  0.36299720004E+03  0.38166456287E+03  0.81646343595E+02 0.  0.
        5    1    3    3  501    0  0.68979119746E+02 -0.57195802027E+02  0.37937487971E+03  0.38984210661E+03  0.47000000000E+01 0. -1.
      -13    1    4    4    0    0  0.28675454006E+02 -0.44017361851E+02  0.25519264933E+02  0.58404132469E+02  0.00000000000E+00 0.  1.
       14    1    4    4    0    0 -0.25182336224E+02 -0.35104851018E+02  0.98638250710E+02  0.10768474881E+03  0.00000000000E+00 0. -1.
       -5    1    5    5    0  504  0.93963109390E+01  0.11324667632E+03  0.38340800372E+03  0.39992110181E+03  0.47000000000E+01 0.  1.
        3    1    6    6  502    0 -0.63919982340E+02  0.13462630626E+02  0.35298273383E+03  0.35897606737E+03  0.00000000000E+00 0. -1.
       -4    1    6    6    0  502 -0.17948566127E+02  0.96087079543E+01  0.10014466217E+02  0.22688495502E+02  0.00000000000E+00 0.  1.
</event>
<event>
12   0  0.1544783E-01  0.1747033E+03  0.7957747E-01  0.1178463E+00
       21   -1    0    0  501  503  0.00000000000E+00  0.00000000000E+00  0.12504713990E+03  0.12504713990E+03  0.00000000000E+00 0.  1.
       21   -1    0    0  503  504  0.00000000000E+00  0.00000000000E+00 -0.24569530223E+03  0.24569530223E+03  0.00000000000E+00 0.  1.
        6    2    1    2  501    0 -0.10057448552E+02 -0.16588896673E+02 -0.80243747356E+02  0.19142769861E+03  0.17271120705E+03 0.  0.
       24    2    3    3    0    0  0.26178300122E+02 -0.38775705578E+01  0.16703521877E+02  0.87046329077E+02  0.81226330780E+02 0.  0.
       -6    2    1    2    0  504  0.10057448552E+02  0.16588896673E+02 -0.40404414969E+02  0.17931474352E+03  0.17362291534E+03 0.  0.
      -24    2    5    5    0    0 -0.25706035797E+02 -0.49282968386E+02 -0.36100674260E+02  0.10409013582E+03  0.80261363335E+02 0.  0.
        5    1    3    3  501    0 -0.36235748675E+02 -0.12711326115E+02 -0.96947269233E+02  0.10438136953E+03  0.47000000000E+01 0. -1.
      -13    1    4    4    0    0 -0.25663349711E+01  0.10993773698E+02 -0.28956758501E+02  0.31079623520E+02  0.00000000000E+00 0.  1.
       14    1    4    4    0    0  0.28744635093E+02 -0.14871344255E+02  0.45660280378E+02  0.55966705556E+02  0.00000000000E+00 0. -1.
       -5    1    5    5    0  504  0.35763484350E+02  0.65871865059E+02 -0.43037407092E+01  0.75224607698E+02  0.47000000000E+01 0.  1.
        3    1    6    6  502    0 -0.42248962478E+02 -0.67533616373E+00 -0.17053260655E+01  0.42288757920E+02  0.00000000000E+00 0. -1.
       -4    1    6    6    0  502  0.16542926681E+02 -0.48607632223E+02 -0.34395348194E+02  0.61801377904E+02  0.00000000000E+00 0.  1.
</event>
<event>
12   0  0.1544783E-01  0.2919689E+03  0.7957747E-01  0.1097421E+00
       21   -1    0    0  504  503  0.00000000000E+00  0.00000000000E+00  0.13476041242E+03  0.13476041242E+03  0.00000000000E+00 0.  1.
       21   -1    0    0  501  504  0.00000000000E+00  0.00000000000E+00 -0.78589184447E+03  0.78589184447E+03  0.00000000000E+00 0. -1.
        6    2    1    2  501    0 -0.12714559966E+03  0.19772515177E+03 -0.52920465060E+03  0.60440332745E+03  0.17316056381E+03 0.  0.
       24    2    3    3    0    0 -0.13970082552E+03  0.10256166279E+03 -0.41366580725E+03  0.45412013593E+03  0.71207320156E+02 0.  0.
       -6    2    1    2    0  503  0.12714559966E+03 -0.19772515177E+03 -0.12192678145E+03  0.31624892945E+03  0.17287569577E+03 0.  0.
      -24    2    5    5    0    0  0.30047091474E+02 -0.10990906980E+03 -0.12228721272E+03  0.18524509570E+03  0.79867088071E+02 0.  0.
        5    1    3    3  501    0  0.12555225859E+02  0.95163488976E+02 -0.11553884335E+03  0.15028319152E+03  0.47000000000E+01 0. -1.
        2    1    4    4  502    0 -0.64711196006E+02  0.36569754049E+02 -0.26335748352E+03  0.27364584763E+03  0.00000000000E+00 0. -1.
       -1    1    4    4    0  502 -0.74989629516E+02  0.65991908744E+02 -0.15030832373E+03  0.18047428830E+03  0.00000000000E+00 0.  1.
       -5    1    5    5    0  503  0.97098508190E+02 -0.87816081969E+02  0.36043127236E+00  0.13100383374E+03  0.47000000000E+01 0.  1.
       13    1    6    6    0    0  0.59351237035E+01  0.12513922687E+02 -0.17417734898E+02  0.22253122104E+02  0.00000000000E+00 0. -1.
      -14    1    6    6    0    0  0.24111967770E+02 -0.12242299249E+03 -0.10486947782E+03  0.16299197360E+03  0.00000000000E+00 0.  1.
</event>
<event>
12   0  0.1544783E-01  0.1847897E+03  0.7957747E-01  0.1169027E+00
       21   -1    0    0  501  503  0.00000000000E+00  0.00000000000E+00  0.39969247035E+03  0.39969247035E+03  0.00000000000E+00 0. -1.
       21   -1    0    0  503  504  0.00000000000E+00  0.00000000000E+00 -0.10210404075E+03  0.10210404075E+03  0.00000000000E+00 0. -1.
        6    2    1    2  501    0  0.36111384414E+02 -0.53953374848E+02  0.25263982653E+03  0.31300819556E+03  0.17300939223E+03 0.  0.
       24    2    3    3    0    0  0.55928152075E+02 -0.88953852328E+01  0.24324618977E+03  0.26267672310E+03  0.81383450092E+02 0.  0.
       -6    2    1    2    0  504 -0.36111384414E+02  0.53953374848E+02  0.44948603074E+02  0.18878831553E+03  0.17148076400E+03 0.  0.
      -24    2    5    5    0    0 -0.77730634508E+01  0.56793858313E+02 -0.21254801304E+02  0.11656567689E+03  0.99246297627E+02 0.  0.
        5    1    3    3  501    0 -0.19816767660E+02 -0.45057989615E+02  0.93936367607E+01  0.50331472463E+02  0.47000000000E+01 0. -1.
      -11    1    4    4    0    0  0.66596493166E+02  0.18708777407E+02  0.18051790949E+03  0.19331794252E+03  0.00000000000E+00 0.  1.
       12    1    4    4    0    0 -0.10668341091E+02 -0.27604162640E+02  0.62728280279E+02  0.69358780580E+02  0.00000000000E+00 0. -1.
       -5    1    5    5    0  504 -0.28338320964E+02 -0.28404834651E+01  0.66203404378E+02  0.72222638643E+02  0.47000000000E+01 0.  1.
        1    1    6    6  502    0  0.13335373270E+02  0.68990471130E+02  0.15978480018E+02  0.72061287185E+02  0.00000000000E+00 0. -1.
       -2    1    6    6    0  502 -0.21108436721E+02 -0.12196612817E+02 -0.37233281321E+02  0.44504389704E+02  0.00000000000E+00 0.  1.
</event>
<event>
12   0  0.1544783E-01  0.1737468E+03  0.7957747E-01  0.1179394E+00
       21   -1    0    0  501  503  0.00000000000E+00  0.00000000000E+00  0.13130850512E+03  0.13130850512E+03  0.00000000000E+00 0.  1.
       21   -1    0    0  503  504  0.00000000000E+00  0.00000000000E+00 -0.57404738611E+03  0.57404738611E+03  0.00000000000E+00 0.  1.
        6    2    1    2  501    0 -0.14415821702E+02  0.94825703684E-01  0.52104364383E+02  0.18139129469E+03  0.17314765980E+03 0.  0.
       24    2    3    3    0    0 -0.36594538223E+02 -0.27474353466E+02  0.90195772375E+02  0.12918975765E+03  0.80378578000E+02 0.  0.
       -6    2    1    2    0  504  0.14415821702E+02 -0.94825703684E-01 -0.49484324538E+03  0.52396459655E+03  0.17164275700E+03 0.  0.
      -24    2    5    5    0    0  0.67431508846E+02  0.29663826043E+02 -0.33320971705E+03  0.35121122345E+03  0.83028049354E+02 0.  0.
        5    1    3    3  501    0  0.22178716521E+02  0.27569179169E+02 -0.38091407992E+02  0.52201537041E+02  0.47000000000E+01 0. -1.
        4    1    4    4  502    0 -0.38189632129E+02  0.20652272003E+02  0.51899612642E+02  0.67664866315E+02  0.00000000000E+00 0. -1.
       -3    1    4    4    0  502  0.15950939061E+01 -0.48126625469E+02  0.38296159734E+02  0.61524891336E+02  0.00000000000E+00 0.  1.
       -5    1    5    5    0  504 -0.53015687144E+02 -0.29758651747E+02 -0.16163352832E+03  0.17275337309E+03  0.47000000000E+01 0.  1.
       13    1    6    6    0    0  0.37880015198E+02 -0.27375882514E+02 -0.14371441650E+03  0.15112302275E+03  0.00000000000E+00 0. -1.
      -14    1    6    6    0    0  0.29551493649E+02  0.57039708557E+02 -0.18949530055E+03  0.20008820070E+03  0.00000000000E+00 0.  1.
</event>
<event>
12   0  0.1544783E-01  0.1830393E+03  0.7957747E-01  0.1170617E+00
       21   -1    0    0  504  503  0.00000000000E+00  0.00000000000E+00  0.34603068136E+03  0.34603068136E+03  0.00000000000E+00 0.  1.
       21   -1    0    0  501  504  0.00000000000E+00  0.00000000000E+00 -0.12414083285E+03  0.12414083285E+03  0.00000000000E+00 0.  1.
        6    2    1    2  501    0  0.42490340567E+02  0.40102410150E+02 -0.99744984903E+00  0.18175837622E+03  0.17210891923E+03 0.  0.
       24    2    3    3    0    0  0.27327237045E+02  0.14132006889E+01 -0.64065730303E+02  0.10608491564E+03  0.80005103005E+02 0.  0.
       -6    2    1    2    0  503 -0.42490340567E+02 -0.40102410150E+02  0.22288729835E+03  0.28841313799E+03  0.17346399643E+03 0.  0.
      -24    2    5    5    0    0 -0.14409406361E+02  0.45395437371E+02  0.11739135715E+03  0.14966911322E+03  0.79697779109E+02 0.  0.
        5    1    3    3  501    0  0.15163103522E+02  0.38689209461E+02  0.63068280454E+02  0.75673460583E+02  0.47000000000E+01 0. -1.
        2    1    4    4  502    0  0.16405064024E+02  0.23973449677E+02 -0.73710627195E+02  0.79228208212E+02  0.00000000000E+00 0. -1.
       -1    1    4    4    0  502  0.10922173021E+02 -0.22560248988E+02  0.96448968925E+01  0.26856707429E+02  0.00000000000E+00 0.  1.
       -5    1    5    5    0  503 -0.28080934206E+02 -0.85497847521E+02  0.10549594120E+03  0.13874402476E+03  0.47000000000E+01 0.  1.
       13    1    6    6    0    0 -0.22183867349E+02  0.42171004807E+02  0.19611911182E+02  0.51528095998E+02  0.00000000000E+00 0. -1.
      -14    1    6    6    0    0  0.77744609879E+01  0.32244325638E+01  0.97779445965E+02  0.98141017226E+02  0.00000000000E+00 0.  1.
</event>
<event>
12   0  0.1544783E-01  0.2058003E+03  0.7957747E-01  0.1151342E+00
       21   -1    0    0  504  503  0.00000000000E+00  0.00000000000E+00  0.42618478075E+02  0.42618478075E+02  0.00000000000E+00 0. -1.
       21   -1    0    0  501  504  0.00000000000E+00  0.00000000000E+00 -0.98567675190E+03  0.98567675190E+03  0.00000000000E+00 0.  1.
        6    2    1    2  501    0 -0.10576307670E+03 -0.25863647431E+01 -0.47339132847E+03  0.51619097328E+03  0.17652550341E+03 0.  0.
       24    2    3    3    0    0 -0.33990750083E+02  0.63458364647E+02 -0.24591046596E+03  0.26863733070E+03  0.80695247951E+02 0.  0.
       -6    2    1    2    0  503  0.10576307670E+03  0.25863647431E+01 -0.46966694536E+03  0.51210425669E+03  0.17456005409E+03 0.  0.
      -24    2    5    5    0    0  0.49730808045E+02  0.54932564471E+02 -0.17265895263E+03  0.20532163413E+03  0.82795649728E+02 0.  0.
        5    1    3    3  501    0 -0.71772326619E+02 -0.66044729390E+02 -0.22748086251E+03  0.24755364258E+03  0.47000000000E+01 0. -1.
        2    1    4    4  502    0 -0.26813902251E+02  0.43166267818E+02 -0.49128833440E+02  0.70682064956E+02  0.00000000000E+00 0. -1.
       -1    1    4    4    0  502 -0.71768478320E+01  0.20292096829E+02 -0.19678163252E+03  0.19795526574E+03  0.00000000000E+00 0.  1.
       -5    1    5    5    0  503  0.56032268657E+02 -0.52346199728E+02 -0.29700799273E+03  0.30678262256E+03  0.47000000000E+01 0.  1.
       13    1    6    6    0    0 -0.68107959513E+01  0.24894400277E+02 -0.55941825058E+01  0.26408577859E+02  0.00000000000E+00 0. -1.
      -14    1    6    6    0    0  0.56541603997E+02  0.30038164194E+02 -0.16706477012E+03  0.17891305628E+03  0.00000000000E+00 0.  1.
</event>
<event>
12   0  0.1544783E-01  0.2106456E+03  0.7957747E-01  0.1147590E+00
       21   -1    0    0  504  503  0.00000000000E+00  0.00000000000E+00  0.33357161727E+03  0.33357161727E+03  0.00000000000E+00 0.  1.
       21   -1    0    0  501  504  0.00000000000E+00  0.00000000000E+00 -0.19865933664E+03  0.19865933664E+03  0.00000000000E+00 0.  1.
        6    2    1    2  501    0  0.49150878099E+02  0.10835164808E+03 -0.86068898950E+02  0.22755092626E+03  0.17382658087E+03 0.  0.
       24    2    3    3    0    0  0.22190389444E+01 -0.91439698630E+01 -0.10185346024E+02  0.79942588532E+02  0.78730806352E+02 0.  0.
       -6    2    1    2    0  503 -0.49150878099E+02 -0.10835164808E+03  0.22098117958E+03  0.30468002765E+03  0.17274648784E+03 0.  0.
      -24    2    5    5    0    0 -0.67582977036E+02 -0.36069812280E+02  0.19817875333E+03  0.22653627101E+03  0.78583545806E+02 0.  0.
        5    1    3    3  501    0  0.46931839155E+02  0.11749561795E+03 -0.75883552926E+02  0.14760833773E+03  0.47000000000E+01 0. -1.
      -13    1    4    4    0    0 -0.28764288461E+02  0.20526383359E+02  0.18563005745E+01  0.35385909008E+02  0.00000000000E+00 0.  1.
       14    1    4    4    0    0  0.30983327406E+02 -0.29670353222E+02 -0.12041646599E+02  0.44556679525E+02  0.00000000000E+00 0. -1.
       -5    1    5    5    0  503  0.18432098937E+02 -0.72281835804E+02  0.22802426249E+02  0.78143756636E+02  0.47000000000E+01 0.  1.
        3    1    6    6  502    0 -0.56211765230E+02 -0.17416098604E+01  0.54271525333E+02  0.78154937254E+02  0.00000000000E+00 0. -1.
       -4    1    6    6    0  502 -0.11371211805E+02 -0.34328202420E+02  0.14390722800E+03  0.14838133376E+03  0.00000000000E+00 0.  1.
</event>
<event>
12   0  0.1544783E-01  0.1888042E+03  0.7957747E-01  0.1165454E+00
       21   -1    0    0  501  503  0.00000000000E+00  0.00000000000E+00  0.23393762077E+03  0.23393762077E+03  0.00000000000E+00 0.  1.
       21   -1    0    0  503  504  0.00000000000E+00  0.00000000000E+00 -0.16210156246E+03  0.16210156246E+03  0.00000000000E+00 0. -1.
        6    2    1    2  501    0 -0.74316709936E+02 -0.15939179611E+02  0.85587177781E+02  0.20673483304E+03  0.17215427781E+03 0.  0.
       24    2    3    3    0    0  0.82796839255E+01 -0.37360428666E+02  0.82256562036E+02  0.12121163623E+03  0.80385097900E+02 0.  0.
       -6    2    1    2    0  504  0.74316709936E+02  0.15939179611E+02 -0.13751119476E+02  0.18930435019E+03  0.17282943295E+03 0.  0.
      -24    2    5    5    0    0  0.50711370481E+02  0.46264881821E+02  0.49406015931E+02  0.11522483873E+03  0.78254243751E+02 0.  0.
        5    1    3    3  501    0 -0.82596393861E+02  0.21421249055E+02  0.33306157447E+01  0.85523196802E+02  0.47000000000E+01 0. -1.
      -11    1    4    4    0    0 -0.34914150849E+02 -0.23164740851E+02  0.51158072750E+02  0.66126783951E+02  0.00000000000E+00 0.  1.
       12    1    4    4    0    0  0.43193834775E+02 -0.14195687815E+02  0.31098489286E+02  0.55084852282E+02  0.00000000000E+00 0. -1.
       -5    1    5    5    0  504  0.23605339454E+02 -0.30325702210E+02 -0.63157135407E+02  0.74079511459E+02  0.47000000000E+01 0.  1.
        3    1    6    6  502    0  0.67567223801E+02  0.17717320773E+02  0.25534756980E+02  0.74372420974E+02  0.00000000000E+00 0. -1.
       -4    1    6    6    0  502 -0.16855853319E+02  0.28547561048E+02  0.23871258951E+02  0.40852417759E+02  0.00000000000E+00 0.  1.
</event>
<event>
12   0  0.1544783E-01  0.3480022E+03  0.7957747E-01  0.1072215E+00
       -2   -1    0    0    0  501  0.00000000000E+00  0.00000000000E+00  0.12218486192E+04  0.12218486192E+04  0.00000000000E+00 0.  1.
        2   -1    0    0  502    0  0.00000000000E+00  0.00000000000E+00 -0.12339347241E+03  0.12339347241E+03  0.00000000000E+00 0. -1.
        6    2    1    2  502    0  0.13151262957E+03  0.27219050064E+03  0.84757379631E+03  0.91623518747E+03  0.17240167687E+03 0.  0.
       24    2    3    3    0    0  0.15204196908E+03  0.23519291128E+03  0.62575789250E+03  0.69037093491E+03  0.81281128618E+02 0.  0.
       -6    2    1    2    0  501 -0.13151262957E+03 -0.27219050064E+03  0.25088135051E+03  0.42900690418E+03  0.17240136721E+03 0.  0.
      -24    2    5    5    0    0 -0.68657141132E+02 -0.14383474737E+03  0.56011672110E+02  0.18729986376E+03  0.80880739193E+02 0.  0.
        5    1    3    3  502    0 -0.20529339508E+02  0.36997589367E+02  0.22181590381E+03  0.22586425256E+03  0.47000000000E+01 0. -1.
        2    1    4    4  503    0  0.12944108213E+03  0.15882838185E+03  0.37572195410E+03  0.42795845058E+03  0.00000000000E+00 0. -1.
       -1    1    4    4    0  503  0.22600886948E+02  0.76364529425E+02  0.25003593840E+03  0.26241248433E+03  0.00000000000E+00 0.  1.
       -5    1    5    5    0  501 -0.62855488441E+02 -0.12835575327E+03  0.19486967840E+03  0.24170704042E+03  0.47000000000E+01 0.  1.
       13    1    6    6    0    0 -0.75380987739E+01 -0.38740220882E+02 -0.19666333428E+02  0.44095264117E+02  0.00000000000E+00 0. -1.
      -14    1    6    6    0    0 -0.61119042358E+02 -0.10509452649E+03  0.75678005537E+02  0.14320459964E+03  0.00000000000E+00 0.  1.
</event>
<event>
12   0  0.1544783E-01  0.1980613E+03  0.7957747E-01  0.1157575E+00
       21   -1    0    0  501  503  0.00000000000E+00  0.00000000000E+00  0.76146619086E+03  0.76146619086E+03  0.00000000000E+00 0.  1.
       21   -1    0    0  503  504  0.00000000000E+00  0.00000000000E+00 -0.14844793485E+03  0.14844793485E+03  0.00000000000E+00 0.  1.
        6    2    1    2  501    0  0.75629531593E+02 -0.58605668668E+02 -0.61164686191E+02  0.20729064463E+03  0.17341811342E+03 0.  0.
       24    2    3    3    0    0  0.65493740710E+02  0.38481106819E+02 -0.43610556918E+02  0.10799908564E+03  0.63179871560E+02 0.  0.
       -6    2    1    2    0  504 -0.75629531593E+02  0.58605668668E+02  0.67418294220E+03  0.70262348108E+03  0.17321277711E+03 0.  0.
      -24    2    5    5    0    0 -0.48136529815E+02  0.10185210031E+02  0.16562815989E+03  0.19100793932E+03  0.81427768767E+02 0.  0.
        5    1    3    3  501    0  0.10135790883E+02 -0.97086775487E+02 -0.17554129273E+02  0.99291558986E+02  0.47000000000E+01 0. -1.
        4    1    4    4  502    0 -0.26536594240E+01  0.29737864286E+02 -0.97905502898E+01  0.31420333474E+02  0.00000000000E+00 0. -1.
       -3    1    4    4    0  502  0.68147400134E+02  0.87432425328E+01 -0.33820006628E+02  0.76578752167E+02  0.00000000000E+00 0.  1.
       -5    1    5    5    0  504 -0.27493001778E+02  0.48420458637E+02  0.50855478231E+03  0.51161554176E+03  0.47000000000E+01 0.  1.
       13    1    6    6    0    0  0.82252037955E+01 -0.23865694094E+02  0.24051976552E+02  0.34867218245E+02  0.00000000000E+00 0. -1.
      -14    1    6    6    0    0 -0.56361733610E+02  0.34050904125E+02  0.14157618334E+03  0.15614072107E+03  0.00000000000E+00 0.  1.
</event>
<event>
12   0  0.1544783E-01  0.2528018E+03  0.7957747E-01  0.1119005E+00
        2   -1    0    0  502    0  0.00000000000E+00  0.00000000000E+00  0.53207528358E+03  0.53207528358E+03  0.00000000000E+00 0.  1.
       -2   -1    0    0    0  501  0.00000000000E+00  0.00000000000E+00 -0.12273377637E+03  0.12273377637E+03  0.00000000000E+00 0. -1.
        6    2    1    2  502    0  0.16122923161E+03 -0.91785278244E+02  0.15619057584E+03  0.29647269437E+03  0.17053199142E+03 0.  0.
       24    2    3    3    0    0  0.18567880834E+03 -0.97481960182E+02  0.15110647747E+03  0.27043095779E+03  0.79500836296E+02 0.  0.
       -6    2    1    2    0  501 -0.16122923161E+03  0.91785278244E+02  0.25315093138E+03  0.35833636558E+03  0.17291661116E+03 0.  0.
      -24    2    5    5    0    0 -0.13615641181E+03  0.12067175396E+03  0.15256453899E+03  0.25062013140E+03  0.80213907945E+02 0.  0.
        5    1    3    3  502    0 -0.24449576734E+02  0.56966819381E+01  0.50840983653E+01  0.26041736573E+02  0.47000000000E+01 0. -1.
        4    1    4    4  503    0  0.63067623045E+02 -0.33604556800E+02  0.87608532691E+01  0.71996832322E+02  0.00000000000E+00 0. -1.
       -3    1    4    4    0  503  0.12261118529E+03 -0.63877403382E+02  0.14234562420E+03  0.19843412547E+03  0.00000000000E+00 0.  1.
       -5    1    5    5    0  501 -0.25072819796E+02 -0.28886475714E+02  0.10058639239E+03  0.10771623418E+03  0.47000000000E+01 0.  1.
       13    1    6    6    0    0 -0.29596527815E+02  0.39910865444E+02  0.26718640502E+01  0.49759124758E+02  0.00000000000E+00 0. -1.
      -14    1    6    6    0    0 -0.10655988399E+03  0.80760888514E+02  0.14989267494E+03  0.20086100664E+03  0.00000000000E+00 0.  1.
</event>
<event>
12   0  0.1544783E-01  0.1861805E+03  0.7957747E-01  0.1167778E+00
        1   -1    0    0  502    0  0.00000000000E+00  0.00000000000E+00  0.12013270993E+03  0.12013270993E+03  0.00000000000E+00 0. -1.
       -1   -1    0    0    0  501  0.00000000000E+00  0.00000000000E+00 -0.28918094225E+03  0.28918094225E+03  0.00000000000E+00 0.  1.
        6    2    1    2  502    0  0.51301020413E+02 -0.45004154768E+02 -0.75097838929E+02  0.20115144011E+03  0.17368087921E+03 0.  0.
       24    2    3    3    0    0  0.98542037266E+02 -0.25082880849E+02 -0.30637830547E+02  0.13312678889E+03  0.80276903528E+02 0.  0.
       -6    2    1    2    0  501 -0.51301020413E+02  0.45004154768E+02 -0.93950393399E+02  0.20816221207E+03  0.17276475761E+03 0.  0.
      -24    2    5    5    0    0 -0.68360335598E+02  0.11698300344E+02 -0.17080839757E+01  0.10850763957E+03  0.83432634976E+02 0.  0.
        5    1    3    3  502    0 -0.47241016853E+02 -0.19921273920E+02 -0.44460008382E+02  0.68024651217E+02  0.47000000000E+01 0. -1.
        2    1    4    4  503    0  0.82691151744E+02  0.13058298817E+02 -0.36652403970E+01  0.83796060360E+02  0.00000000000E+00 0. -1.
       -1    1    4    4    0  503  0.15850885522E+02 -0.38141179666E+02 -0.26972590150E+02  0.49330728532E+02  0.00000000000E+00 0.  1.
       -5    1    5    5    0  501  0.17059315185E+02  0.33305854424E+02 -0.92242309424E+02  0.99654572506E+02  0.47000000000E+01 0.  1.
       11    1    6    6    0    0  0.37571408130E+01  0.30218890440E+02 -0.13161682737E+02  0.33174196885E+02  0.00000000000E+00 0. -1.
      -12    1    6    6    0    0 -0.72117476411E+02 -0.18520590096E+02  0.11453598761E+02  0.75333442680E+02  0.00000000000E+00 0.  1.
</event>
<event>
12   0  0.1544783E-01  0.2435084E+03  0.7957747E-01  0.1124757E+00
       21   -1    0    0  501  503  0.00000000000E+00  0.00000000000E+00  0.38591202912E+03  0.38591202912E+03  0.00000000000E+00 0. -1.
       21   -1    0    0  503  504  0.00000000000E+00  0.00000000000E+00 -0.18464786000E+03  0.18464786000E+03  0.00000000000E+00 0.  1.
        6    2    1    2  501    0  0.17172821922E+03  0.30007890270E+00 -0.20192538183E+02  0.24141032454E+03  0.16846523342E+03 0.  0.
       24    2    3    3    0    0  0.37062565156E+02  0.40944892032E+02  0.85978389930E+01  0.97751649070E+02  0.80195661611E+02 0.  0.
       -6    2    1    2    0  504 -0.17172821922E+03 -0.30007890270E+00  0.22145670731E+03  0.32914956458E+03  0.17264324871E+03 0.  0.
      -24    2    5    5    0    0 -0.15422114125E+03  0.17724501455E+02  0.94181190359E+02  0.19933226800E+03  0.82249243695E+02 0.  0.
        5    1    3    3  501    0  0.13466565407E+03 -0.40644813129E+02 -0.28790377176E+02  0.14365867547E+03  0.47000000000E+01 0. -1.
      -11    1    4    4    0    0  0.58048385649E+02  0.47900526562E+02  0.70281413513E+01  0.75587500899E+02  0.00000000000E+00 0.  1.
       12    1    4    4    0    0 -0.20985820493E+02 -0.69556345302E+01  0.15696976417E+01  0.22164148171E+02  0.00000000000E+00 0. -1.
       -5    1    5    5    0  504 -0.17507077976E+02 -0.18024580358E+02  0.12727551695E+03  0.12981729658E+03  0.47000000000E+01 0.  1.
        3    1    6    6  502    0 -0.12982140121E+03  0.10719436080E+02  0.10907560499E+03  0.16989994151E+03  0.00000000000E+00 0. -1.
       -4    1    6    6    0  502 -0.24399740043E+02  0.70050653755E+01 -0.14894414636E+02  0.29432326487E+02  0.00000000000E+00 0.  1.
</event>
<event>
12   0  0.1544783E-01  0.2296088E+03  0.7957747E-01  0.1133903E+00
       21   -1    0    0  501  503  0.00000000000E+00  0.00000000000E+00  0.15504825909E+03  0.15504825909E+03  0.00000000000E+00 0. -1.
       21   -1    0    0  503  504  0.00000000000E+00  0.00000000000E+00 -0.35648431599E+03  0.35648431599E+03  0.00000000000E+00 0.  1.
        6    2    1    2  501    0 -0.62051079852E+02 -0.13444337404E+03 -0.37778764475E+02  0.22956817320E+03  0.17131536349E+03 0.  0.
       24    2    3    3    0    0  0.27079451763E+02 -0.46117276266E+02 -0.43779462147E+02  0.10385481040E+03  0.77518258875E+02 0.  0.
       -6    2    1    2    0  504  0.62051079852E+02  0.13444337404E+03 -0.16365729243E+03  0.28196440189E+03  0.17548463532E+03 0.  0.
      -24    2    5    5    0    0 -0.27663164918E+02  0.35849672019E+02 -0.84735243827E+02  0.12698006865E+03  0.83026662051E+02 0.  0.
        5    1    3    3  501    0 -0.89130531615E+02 -0.88326097770E+02  0.60006976722E+01  0.12571336280E+03  0.47000000000E+01 0. -1.
        4    1    4    4  502    0  0.25966585194E+02  0.15508895685E+02 -0.40298532773E+01  0.30512769613E+02  0.00000000000E+00 0. -1.
       -3    1    4    4    0  502  0.11128665694E+01 -0.61626171951E+02 -0.39749608869E+02  0.73342040785E+02  0.00000000000E+00 0.  1.
       -5    1    5    5    0  504  0.89714244770E+02  0.98593702016E+02 -0.78922048606E+02  0.15498433323E+03  0.47000000000E+01 0.  1.
       11    1    6    6    0    0 -0.12976863022E+02 -0.25959718573E+02 -0.15088165170E+02  0.32710223027E+02  0.00000000000E+00 0. -1.
      -12    1    6    6    0    0 -0.14686301896E+02  0.61809390592E+02 -0.69647078657E+02  0.94269845625E+02  0.00000000000E+00 0.  1.
</event>
<event>
12   0  0.1544783E-01  0.1980599E+03  0.7957747E-01  0.1157576E+00
       21   -1    0    0  504  503  0.00000000000E+00  0.00000000000E+00  0.10439055227E+04  0.10439055227E+04  0.00000000000E+00 0. -1.
       21   -1    0    0  501  504  0.00000000000E+00  0.00000000000E+00 -0.69700929162E+02  0.69700929162E+02  0.00000000000E+00 0. -1.
        6    2    1    2  501    0  0.93821411195E+02  0.33780469858E+00  0.10855757604E+03  0.22585944433E+03  0.17442812263E+03 0.  0.
       24    2    3    3    0    0  0.37806811407E+02 -0.33326660670E+02  0.12640540647E+03  0.15795092742E+03  0.80188199808E+02 0.  0.
       -6    2    1    2    0  503 -0.93821411195E+02 -0.33780469858E+00  0.86564701748E+03  0.88774700751E+03  0.17305322641E+03 0.  0.
      -24    2    5    5    0    0 -0.10701844899E+03  0.40316370039E+02  0.77575880841E+03  0.78810312230E+03  0.78907822445E+02 0.  0.
        5    1    3    3  501    0  0.56014599787E+02  0.33664465368E+02 -0.17847830426E+02  0.67908516909E+02  0.47000000000E+01 0. -1.
      -11    1    4    4    0    0 -0.18129281728E+02  0.12591517065E+02  0.24697661036E+02  0.33123882904E+02  0.00000000000E+00 0.  1.
       12    1    4    4    0    0  0.55936093136E+02 -0.45918177735E+02  0.10170774543E+03  0.12482704451E+03  0.00000000000E+00 0. -1.
       -5    1    5    5    0  503  0.13197037793E+02 -0.40654174737E+02  0.89888209065E+02  0.99643885206E+02  0.47000000000E+01 0.  1.
        3    1    6    6  502    0 -0.45654207996E+02  0.19605608951E+02  0.57530246568E+03  0.57744403506E+03  0.00000000000E+00 0. -1.
       -4    1    6    6    0  502 -0.61364240993E+02  0.20710761088E+02  0.20045634273E+03  0.21065908724E+03  0.00000000000E+00 0.  1.
</event>
<event>
12   0  0.1544783E-01  0.2009405E+03  0.7957747E-01  0.1155220E+00
       21   -1    0    0  504  503  0.00000000000E+00  0.00000000000E+00  0.32034181056E+03  0.32034181056E+03  0.00000000000E+00 0. -1.
       21   -1    0    0  501  504  0.00000000000E+00  0.00000000000E+00 -0.17312421591E+03  0.17312421591E+03  0.00000000000E+00 0.  1.
        6    2    1    2  501    0  0.83714512715E+02  0.50297919808E+02 -0.59542371821E+02  0.20957662993E+03  0.17561056175E+03 0.  0.
       24    2    3    3    0    0  0.18995882298E+02  0.82344795690E+01  0.32600970688E+02  0.89283988030E+02  0.80499422549E+02 0.  0.
       -6    2    1    2    0  503 -0.83714512715E+02 -0.50297919808E+02  0.20675996647E+03  0.28388939654E+03  0.16824240058E+03 0.  0.
      -24    2    5    5    0    0 -0.82806886423E+02  0.25182719683E+02  0.11913680769E+03  0.16813941304E+03  0.81154996532E+02 0.  0.
        5    1    3    3  501    0  0.64718630417E+02  0.42063440239E+02 -0.92143342509E+02  0.12029264190E+03  0.47000000000E+01 0. -1.
        4    1    4    4  502    0 -0.12645543544E+02  0.22608736672E+02  0.45381868133E+02  0.52254939486E+02  0.00000000000E+00 0. -1.
       -3    1    4    4    0  502  0.31641425842E+02 -0.14374257103E+02 -0.12780897445E+02  0.37029048544E+02  0.00000000000E+00 0.  1.
       -5    1    5    5    0  503 -0.90762629164E+00 -0.75480639491E+02  0.87623158785E+02  0.11574998349E+03  0.47000000000E+01 0.  1.
       13    1    6    6    0    0 -0.44305640786E+02 -0.24963736930E+02  0.30613174362E+02  0.59357766227E+02  0.00000000000E+00 0. -1.
      -14    1    6    6    0    0 -0.38501245638E+02  0.50146456612E+02  0.88523633327E+02  0.10878164682E+03  0.00000000000E+00 0.  1.
</event>
<event>
12   0  0.1544783E-01  0.1802772E+03  0.7957747E-01  0.1173164E+00
       -3   -1    0    0    0  501  0.00000000000E+00  0.00000000000E+00  0.15343416083E+03  0.15343416083E+03  0.00000000000E+00 0. -1.
        3   -1    0    0  502    0  0.00000000000E+00  0.00000000000E+00 -0.24550256965E+03  0.24550256965E+03  0.00000000000E+00 0.  1.
        6    2    1    2  502    0  0.27264809445E+02  0.46203545327E+02  0.27767164550E+02  0.18278501530E+03  0.17251437319E+03 0.  0.
       24    2    3    3    0    0 -0.14948674861E+02  0.75764205388E+02 -0.20753524287E+02  0.11184730935E+03  0.78201241296E+02 0.  0.
       -6    2    1    2    0  501 -0.27264809445E+02 -0.46203545327E+02 -0.11983557337E+03  0.21615171517E+03  0.17170574216E+03 0.  0.
      -24    2    5    5    0    0 -0.29487575296E+02 -0.17197892225E+02  0.51992351970E+01  0.87691363492E+02  0.80606814791E+02 0.  0.
        5    1    3    3  502    0  0.42213484307E+02 -0.29560660061E+02  0.48520688837E+02  0.70937705952E+02  0.47000000000E+01 0. -1.
        2    1    4    4  503    0 -0.35164230491E+02  0.59133862144E+02  0.12084388811E+02  0.69852481782E+02  0.00000000000E+00 0. -1.
       -1    1    4    4    0  503  0.20215555629E+02  0.16630343244E+02 -0.32837913098E+02  0.41994827568E+02  0.00000000000E+00 0.  1.
       -5    1    5    5    0  501  0.22227658507E+01 -0.29005653102E+02 -0.12503480857E+03  0.12846035168E+03  0.47000000000E+01 0.  1.
       11    1    6    6    0    0  0.14920883830E+01 -0.25235004918E+02 -0.30586917269E+02  0.39681120309E+02  0.00000000000E+00 0. -1.
      -12    1    6    6    0    0 -0.30979663679E+02  0.80371126933E+01  0.35786152467E+02  0.48010243183E+02  0.00000000000E+00 0.  1.
</event>
<event>
12   0  0.1544783E-01  0.1899362E+03  0.7957747E-01  0.1164464E+00
       21   -1    0    0  501  503  0.00000000000E+00  0.00000000000E+00  0.22430075051E+03  0.22430075051E+03  0.00000000000E+00 0. -1.
       21   -1    0    0  503  504  0.00000000000E+00  0.00000000000E+00 -0.18066019810E+03  0.18066019810E+03  0.00000000000E+00 0. -1.
        6    2    1    2  501    0 -0.68141950581E+02 -0.42257838503E+02  0.93865676287E+02  0.21186436691E+03  0.17218215481E+03 0.  0.
       24    2    3    3    0    0 -0.29680360316E+02 -0.88999097977E+02  0.91185600390E+02  0.15109174092E+03  0.75578682349E+02 0.  0.
       -6    2    1    2    0  504  0.68141950581E+02  0.42257838503E+02 -0.50225123867E+02  0.19309658170E+03  0.16832907192E+03 0.  0.
      -24    2    5    5    0    0  0.68675234286E+02  0.84755263968E+02 -0.16357168802E+02  0.13854895166E+03  0.83836224041E+02 0.  0.
        5    1    3    3  501    0 -0.38461590265E+02  0.46741259474E+02  0.26800758966E+01  0.60772625990E+02  0.47000000000E+01 0. -1.
        4    1    4    4  502    0 -0.54805551078E+02 -0.52289459827E+02  0.62009745169E+02  0.97893025971E+02  0.00000000000E+00 0. -1.
       -3    1    4    4    0  502  0.25125190762E+02 -0.36709638151E+02  0.29175855221E+02  0.53198714946E+02  0.00000000000E+00 0.  1.
       -5    1    5    5    0  504 -0.53328370498E+00 -0.42497425465E+02 -0.33867955065E+02  0.54547630039E+02  0.47000000000E+01 0.  1.
       13    1    6    6    0    0  0.44763490259E+01 -0.13375358206E+02 -0.15938330541E+02  0.21283051665E+02  0.00000000000E+00 0. -1.
      -14    1    6    6    0    0  0.64198885260E+02  0.98130622175E+02 -0.41883826121E+00  0.11726590000E+03  0.00000000000E+00 0.  1.
</event>
<event>
12   0  0.1544783E-01  0.2325973E+03  0.7957747E-01  0.1131878E+00
       -1   -1    0    0    0  501  0.00000000000E+00  0.00000000000E+00  0.14187525451E+03  0.14187525451E+03  0.00000000000E+00 0.  1.
        1   -1    0    0  502    0  0.00000000000E+00  0.00000000000E+00 -0.87267217326E+03  0.87267217326E+03  0.00000000000E+00 0. -1.
        6    2    1    2  502    0  0.29853392701E+02 -0.15377142136E+03 -0.74623199766E+03  0.78172824695E+03  0.17233682910E+03 0.  0.
       24    2    3    3    0    0  0.66557324158E+02 -0.11787038950E+03 -0.37089892047E+03  0.40287065958E+03  0.80096523187E+02 0.  0.
       -6    2    1    2    0  501 -0.29853392701E+02  0.15377142136E+03  0.15435078908E+02  0.23281918082E+03  0.17155073365E+03 0.  0.
      -24    2    5    5    0    0  0.53937112856E+01  0.15314444305E+03 -0.28978922236E+02  0.17592063129E+03  0.81400110693E+02 0.  0.
        5    1    3    3  502    0 -0.36703931457E+02 -0.35901031863E+02 -0.37533307719E+03  0.37885758737E+03  0.47000000000E+01 0. -1.
        4    1    4    4  503    0  0.77310642282E+02 -0.76170608459E+02 -0.30866876981E+03  0.32719307214E+03  0.00000000000E+00 0. -1.
       -3    1    4    4    0  503 -0.10753318124E+02 -0.41699781036E+02 -0.62230150660E+02  0.75677587437E+02  0.00000000000E+00 0.  1.
       -5    1    5    5    0  501 -0.35247103987E+02  0.62697831079E+00  0.44414001144E+02  0.56898549532E+02  0.47000000000E+01 0.  1.
       13    1    6    6    0    0 -0.18802009913E+02  0.71579414199E+02 -0.48691216361E+02  0.88588727638E+02  0.00000000000E+00 0. -1.
      -14    1    6    6    0    0  0.24195721199E+02  0.81565028848E+02  0.19712294125E+02  0.87331903649E+02  0.00000000000E+00 0.  1.
</event>
<event>
12   0  0.1544783E-01  0.3233527E+03  0.7957747E-01  0.1082621E+00
       21   -1    0    0  501  503  0.00000000000E+00  0.00000000000E+00  0.45914477773E+03  0.45914477773E+03  0.00000000000E+00 0.  1.
       21   -1    0    0  503  504  0.00000000000E+00  0.00000000000E+00 -0.27551973165E+03  0.27551973165E+03  0.00000000000E+00 0.  1.
        6    2    1    2  501    0  0.23286706052E+03 -0.14234774348E+03  0.24637064835E+03  0.40651628535E+03  0.17339851770E+03 0.  0.
       24    2    3    3    0    0  0.36538091105E+02 -0.25395284746E+02  0.46563626291E+02  0.10292465520E+03  0.80283004212E+02 0.  0.
       -6    2    1    2    0  504 -0.23286706052E+03  0.14234774348E+03 -0.62745602273E+02  0.32814822402E+03  0.17103887972E+03 0.  0.
      -24    2    5    5    0    0 -0.46292707578E+02  0.50774146447E+02  0.14617783795E+02  0.10633096511E+03  0.79822088519E+02 0.  0.
        5    1    3    3  501    0  0.19632896941E+03 -0.11695245873E+03  0.19980702206E+03  0.30359163015E+03  0.47000000000E+01 0. -1.
        4    1    4    4  502    0  0.15246852323E+02 -0.20910244583E+02  0.67769052915E+02  0.72542052406E+02  0.00000000000E+00 0. -1.
       -3    1    4    4    0  502  0.21291238782E+02 -0.44850401636E+01 -0.21205426624E+02  0.30382602792E+02  0.00000000000E+00 0.  1.
       -5    1    5    5    0  504 -0.18657435294E+03  0.91573597032E+02 -0.77363386068E+02  0.22181725891E+03  0.47000000000E+01 0.  1.
       11    1    6    6    0    0 -0.11777290320E+02 -0.11101405546E+02  0.29763138091E+02  0.33879051955E+02  0.00000000000E+00 0. -1.
      -12    1    6    6    0    0 -0.34515417258E+02  0.61875551992E+02 -0.15145354295E+02  0.72451913153E+02  0.00000000000E+00 0.  1.
</event>
<event>
12   0  0.1544783E-01  0.1927337E+03  0.7957747E-01  0.1162050E+00
       21   -1    0    0  501  503  0.00000000000E+00  0.00000000000E+00  0.50232345769E+03  0.50232345769E+03  0.00000000000E+00 0. -1.
       21   -1    0    0  503  504  0.00000000000E+00  0.00000000000E+00 -0.99019146477E+02  0.99019146477E+02  0.00000000000E+00 0. -1.
        6    2    1    2  501    0  0.77404814910E+02  0.32598303903E+02  0.48818541779E+02  0.19784981801E+03  0.17235760986E+03 0.  0.
       24    2    3    3    0    0  0.98309910906E+02  0.72414096148E+01  0.81595425721E+02  0.15119781647E+03  0.80533779319E+02 0.  0.
       -6    2    1    2    0  504 -0.77404814910E+02 -0.32598303903E+02  0.35448576943E+03  0.40349278616E+03  0.17347078417E+03 0.  0.
      -24    2    5    5    0    0 -0.39483790448E+02  0.10981970923E+02  0.31983722495E+03  0.33596607970E+03  0.94328059726E+02 0.  0.
        5    1    3    3  501    0 -0.20905095996E+02  0.25356894288E+02 -0.32776883942E+02  0.46652001538E+02  0.47000000000E+01 0. -1.
      -11    1    4    4    0    0  0.76540172794E+02  0.40425047554E+02  0.46714156685E+02  0.98360535562E+02  0.00000000000E+00 0.  1.
       12    1    4    4    0    0  0.21769738112E+02 -0.33183637940E+02  0.34881269036E+02  0.52837280909E+02  0.00000000000E+00 0. -1.
       -5    1    5    5    0  504 -0.37921024462E+02 -0.43580274826E+02  0.34648544482E+02  0.67526706457E+02  0.47000000000E+01 0.  1.
        3    1    6    6  502    0  0.11382850291E+02  0.41833040074E+02  0.13408361498E+03  0.14091837470E+03  0.00000000000E+00 0. -1.
       -4    1    6    6    0  502 -0.50866640739E+02 -0.30851069152E+02  0.18575360998E+03  0.19504770500E+03  0.00000000000E+00 0.  1.
</event>
<event>
12   0  0.1544783E-01  0.2073921E+03  0.7957747E-01  0.1150097E+00
       21   -1    0    0  504  503  0.00000000000E+00  0.00000000000E+00  0.26181588538E+03  0.26181588538E+03  0.00000000000E+00 0. -1.
       21   -1    0    0  501  504  0.00000000000E+00  0.00000000000E+00 -0.16527188212E+03  0.16527188212E+03  0.00000000000E+00 0. -1.
        6    2    1    2  501    0 -0.10160345716E+03  0.54465503421E+02  0.66960871395E+02  0.21793398440E+03  0.17239985409E+03 0.  0.
       24    2    3    3    0    0 -0.39466496972E+01  0.72542170560E+02  0.46879106781E+02  0.11649934925E+03  0.78080120193E+02 0.  0.
       -6    2    1    2    0  503  0.10160345716E+03 -0.54465503421E+02  0.29583131871E+02  0.20915378310E+03  0.17198950470E+03 0.  0.
      -24    2    5    5    0    0  0.77124220076E+02  0.32398619278E+02  0.30052908203E+02  0.11878277254E+03  0.78793108250E+02 0.  0.
        5    1    3    3  501    0 -0.97656807460E+02 -0.18076667139E+02  0.20081764614E+02  0.10143463515E+03  0.47000000000E+01 0. -1.
      -11    1    4    4    0    0  0.27410947230E+02  0.43180452471E+02 -0.23030247789E+01  0.51197806855E+02  0.00000000000E+00 0.  1.
       12    1    4    4    0    0 -0.31357596927E+02  0.29361718088E+02  0.49182131560E+02  0.65301542393E+02  0.00000000000E+00 0. -1.
       -5    1    5    5    0  503  0.24479237081E+02 -0.86864122699E+02 -0.46977633189E+00  0.90371010563E+02  0.47000000000E+01 0.  1.
        1    1    6    6  502    0  0.26293918566E+02  0.40821484307E+02 -0.14491916113E+02  0.50673260870E+02  0.00000000000E+00 0. -1.
       -2    1    6    6    0  502  0.50830301510E+02 -0.84228650287E+01  0.44544824315E+02  0.68109511672E+02  0.00000000000E+00 0.  1.
</event>
<event>
12   0  0.1544783E-01  0.1907885E+03  0.7957747E-01  0.1163724E+00
        1   -1    0    0  502    0  0.00000000000E+00  0.00000000000E+00  0.20868269193E+03  0.20868269193E+03  0.00000000000E+00 0. -1.
       -1   -1    0    0    0  501  0.00000000000E+00  0.00000000000E+00 -0.18525894323E+03  0.18525894323E+03  0.00000000000E+00 0.  1.
        6    2    1    2  502    0  0.47615451983E+02 -0.64677569465E+02  0.59366908376E+02  0.20038154016E+03  0.17371791090E+03 0.  0.
       24    2    3    3    0    0 -0.96934742308E+01 -0.95666603984E+02  0.62130288648E+02  0.13500295379E+03  0.71551116032E+02 0.  0.
       -6    2    1    2    0  501 -0.47615451983E+02  0.64677569465E+02 -0.35943159678E+02  0.19356009500E+03  0.17240411941E+03 0.  0.
      -24    2    5    5    0    0 -0.30938353663E+02  0.10481322145E+03  0.28836243997E+01  0.13509125433E+03  0.79362072728E+02 0.  0.
        5    1    3    3  502    0  0.57308926213E+02  0.30989034519E+02 -0.27633802725E+01  0.65378586362E+02  0.47000000000E+01 0. -1.
        4    1    4    4  503    0 -0.29188054124E+01 -0.64523257235E+02  0.76433247116E+02  0.10006903324E+03  0.00000000000E+00 0. -1.
       -3    1    4    4    0  503 -0.67746688184E+01 -0.31143346748E+02 -0.14302958468E+02  0.34933920553E+02  0.00000000000E+00 0.  1.
       -5    1    5    5    0  501 -0.16677098320E+02 -0.40135651984E+02 -0.38826784078E+02  0.58468840679E+02  0.47000000000E+01 0.  1.
       11    1    6    6    0    0 -0.15191511585E+02 -0.10156272497E+02  0.52878146105E+01  0.19023482295E+02  0.00000000000E+00 0. -1.
      -12    1    6    6    0    0 -0.15746842078E+02  0.11496949395E+03 -0.24041902108E+01  0.11606777203E+03  0.00000000000E+00 0.  1.
</event>
<event>
12   0  0.1544783E-01  0.1844155E+03  0.7957747E-01  0.1169365E+00
       21   -1    0    0  504  503  0.00000000000E+00  0.00000000000E+00  0.10775773896E+03  0.10775773896E+03  0.00000000000E+00 0.  1.
       21   -1    0    0  501  504  0.00000000000E+00  0.00000000000E+00 -0.41534673853E+03  0.41534673853E+03  0.00000000000E+00 0. -1.
        6    2    1    2  501    0 -0.36469967709E+02  0.52020353856E+02 -0.28248117375E+03  0.33734950882E+03  0.17312683738E+03 0.  0.
       24    2    3    3    0    0  0.34773351543E+02  0.27620355940E+02 -0.22535377632E+03  0.24271019367E+03  0.78433688990E+02 0.  0.
       -6    2    1    2    0  503  0.36469967709E+02 -0.52020353856E+02 -0.25107825825E+02  0.18575496867E+03  0.17273774836E+03 0.  0.
      -24    2    5    5    0    0 -0.16502812779E+02 -0.54201385605E+02 -0.64442337788E+02  0.11957214459E+03  0.83273944492E+02 0.  0.
        5    1    3    3  501    0 -0.71243319252E+02  0.24399997916E+02 -0.57127397428E+02  0.94639315157E+02  0.47000000000E+01 0. -1.
        2    1    4    4  502    0  0.12142784895E+02  0.51002516651E+02 -0.17560501767E+03  0.18326436141E+03  0.00000000000E+00 0. -1.
       -1    1    4    4    0  502  0.22630566648E+02 -0.23382160711E+02 -0.49748758647E+02  0.59445832261E+02  0.00000000000E+00 0.  1.
       -5    1    5    5    0  503  0.52972780488E+02  0.21810317492E+01  0.39334511963E+02  0.66182824082E+02  0.47000000000E+01 0.  1.
       11    1    6    6    0    0 -0.27583593546E+02  0.14459262993E+02 -0.18631572604E+02  0.36291327021E+02  0.00000000000E+00 0. -1.
      -12    1    6    6    0    0  0.11080780768E+02 -0.68660648598E+02 -0.45810765184E+02  0.83280817569E+02  0.00000000000E+00 0.  1.
</event>
<event>
12   0  0.1544783E-01  0.2887531E+03  0.7957747E-01  0.1099051E+00
       21   -1    0    0  504  503  0.00000000000E+00  0.00000000000E+00  0.20827773541E+03  0.20827773541E+03  0.00000000000E+00 0.  1.
       21   -1    0    0  501  504  0.00000000000E+00  0.00000000000E+00 -0.39242149353E+03  0.39242149353E+03  0.00000000000E+00 0. -1.
        6    2    1    2  501    0 -0.22003260410E+03 -0.13517506127E+02 -0.59923227935E+02  0.28636010060E+03  0.17266801711E+03 0.  0.
       24    2    3    3    0    0 -0.40553544227E+02  0.25708271177E+02 -0.17751321391E+01  0.93604593332E+02  0.80331585584E+02 0.  0.
       -6    2    1    2    0  503  0.22003260410E+03  0.13517506127E+02 -0.12422053018E+03  0.31433912834E+03  0.18649739315E+03 0.  0.
      -24    2    5    5    0    0  0.78638243165E+02  0.72275877810E+02 -0.43051336221E+02  0.14097408113E+03  0.81317268765E+02 0.  0.
        5    1    3    3  501    0 -0.17947905987E+03 -0.39225777304E+02 -0.58148095796E+02  0.19275550727E+03  0.47000000000E+01 0. -1.
        2    1    4    4  502    0  0.23645854162E+02 -0.14033275477E+01  0.22829505797E+01  0.23797218548E+02  0.00000000000E+00 0. -1.
       -1    1    4    4    0  502 -0.64199398389E+02  0.27111598725E+02 -0.40580827188E+01  0.69807374784E+02  0.00000000000E+00 0.  1.
       -5    1    5    5    0  503  0.14139436093E+03 -0.58758371684E+02 -0.81169193959E+02  0.17336504721E+03  0.47000000000E+01 0.  1.
       11    1    6    6    0    0  0.19218584490E+02  0.30905863197E+02 -0.56622823347E+02  0.67310255485E+02  0.00000000000E+00 0. -1.
      -12    1    6    6    0    0  0.59419658675E+02  0.41370014613E+02  0.13571487126E+02  0.73663825647E+02  0.00000000000E+00 0.  1.
</event>
<event>
12   0  0.1544783E-01  0.1838583E+03  0.7957747E-01  0.1169871E+00
       21   -1    0    0  501  503  0.00000000000E+00  0.00000000000E+00  0.12589856514E+03  0.12589856514E+03  0.00000000000E+00 0. -1.
       21   -1    0    0  503  504  0.00000000000E+00  0.00000000000E+00 -0.38525925769E+03  0.38525925769E+03  0.00000000000E+00 0. -1.
        6    2    1    2  501    0  0.56452871088E+02 -0.24043294644E+01 -0.27295587722E+03  0.32679756602E+03  0.17058438027E+03 0.  0.
       24    2    3    3    0    0 -0.25962035614E+02 -0.35982995210E+00 -0.12371349587E+03  0.15623445390E+03  0.91815133581E+02 0.  0.
       -6    2    1    2    0  504 -0.56452871088E+02  0.24043294644E+01  0.13595184674E+02  0.18436025681E+03  0.17496047494E+03 0.  0.
      -24    2    5    5    0    0 -0.64942541453E+02 -0.60137943516E+02  0.94964797686E+01  0.12093707655E+03  0.81862613053E+02 0.  0.
        5    1    3    3  501    0  0.82414906702E+02 -0.20444995123E+01 -0.14924238135E+03  0.17056311212E+03  0.47000000000E+01 0. -1.
      -11    1    4    4    0    0 -0.11420758553E+02  0.11172515213E+02  0.11543128385E+02  0.19710470188E+02  0.00000000000E+00 0.  1.
       12    1    4    4    0    0 -0.14541277061E+02 -0.11532345165E+02 -0.13525662426E+03  0.13652398372E+03  0.00000000000E+00 0. -1.
       -5    1    5    5    0  504  0.84896703646E+01  0.62542272980E+02  0.40987049056E+01  0.63423180260E+02  0.47000000000E+01 0.  1.
        1    1    6    6  502    0 -0.51623003874E+02  0.21498498252E+01  0.21774410334E+02  0.56068541346E+02  0.00000000000E+00 0. -1.
       -2    1    6    6    0  502 -0.13319537579E+02 -0.62287793341E+02 -0.12277930565E+02  0.64868535204E+02  0.00000000000E+00 0.  1.
</event>
<event>
12   0  0.1544783E-01  0.2164604E+03  0.7957747E-01  0.1143231E+00
       21   -1    0    0  501  503  0.00000000000E+00  0.00000000000E+00  0.21213209999E+03  0.21213209999E+03  0.00000000000E+00 0. -1.
       21   -1    0    0  503  504  0.00000000000E+00  0.00000000000E+00 -0.41715393299E+03  0.41715393299E+03  0.00000000000E+00 0. -1.
        6    2    1    2  501    0 -0.95305199989E+02  0.89367836578E+02  0.11335696862E+03  0.24429232740E+03  0.17250868828E+03 0.  0.
       24    2    3    3    0    0 -0.12348646468E+03  0.57178103368E+02  0.45725075424E+02  0.16412671394E+03  0.79552204509E+02 0.  0.
       -6    2    1    2    0  504  0.95305199989E+02 -0.89367836578E+02 -0.31837880163E+03  0.38499370558E+03  0.17258447396E+03 0.  0.
      -24    2    5    5    0    0  0.20719729119E+02 -0.10327413153E+03 -0.24980890358E+03  0.28262037691E+03  0.79843194575E+02 0.  0.
        5    1    3    3  501    0  0.28181264694E+02  0.32189733210E+02  0.67631893198E+02  0.80165613460E+02  0.47000000000E+01 0. -1.
      -11    1    4    4    0    0 -0.36269411059E+02  0.55800595114E+02  0.20693114632E+01  0.66584222181E+02  0.00000000000E+00 0.  1.
       12    1    4    4    0    0 -0.87217053624E+02  0.13775082545E+01  0.43655763961E+02  0.97542491760E+02  0.00000000000E+00 0. -1.
       -5    1    5    5    0  504  0.74585470870E+02  0.13906294955E+02 -0.68569898049E+02  0.10237332867E+03  0.47000000000E+01 0.  1.
        3    1    6    6  502    0  0.42536423707E+02 -0.26866367436E+02 -0.71703171631E+02  0.87592772892E+02  0.00000000000E+00 0. -1.
       -4    1    6    6    0  502 -0.21816694588E+02 -0.76407764098E+02 -0.17810573195E+03  0.19502760402E+03  0.00000000000E+00 0.  1.
</event>
<event>
12   0  0.1544783E-01  0.2709356E+03  0.7957747E-01  0.1108520E+00
       21   -1    0    0  501  503  0.00000000000E+00  0.00000000000E+00  0.15803911997E+03  0.15803911997E+03  0.00000000000E+00 0.  1.
       21   -1    0    0  503  504  0.00000000000E+00  0.00000000000E+00 -0.55557180498E+03  0.55557180498E+03  0.00000000000E+00 0.  1.
        6    2    1    2  501    0 -0.19251875254E+03  0.81016286765E+02 -0.34900106227E+03  0.44182329946E+03  0.17256586474E+03 0.  0.
       24    2    3    3    0    0 -0.91223388401E+02 -0.23983235384E+02 -0.13940721107E+03  0.18640731932E+03  0.80102534453E+02 0.  0.
       -6    2    1    2    0  504  0.19251875254E+03 -0.81016286765E+02 -0.48531622735E+02  0.27178762550E+03  0.16699127573E+03 0.  0.
      -24    2    5    5    0    0  0.17391355232E+03 -0.15833958440E+02 -0.55855772415E+02  0.20344567228E+03  0.88168227487E+02 0.  0.
        5    1    3    3  501    0 -0.10129536414E+03  0.10499952215E+03 -0.20959385120E+03  0.25541598014E+03  0.47000000000E+01 0. -1.
      -11    1    4    4    0    0 -0.83794818701E+02 -0.64714731080E+00 -0.13852850823E+03  0.16190163073E+03  0.00000000000E+00 0.  1.
       12    1    4    4    0    0 -0.74285697002E+01 -0.23336088073E+02 -0.87870283801E+00  0.24505688585E+02  0.00000000000E+00 0. -1.
       -5    1    5    5    0  504  0.18605200222E+02 -0.65182328325E+02  0.73241496797E+01  0.68341953218E+02  0.47000000000E+01 0.  1.
        3    1    6    6  502    0  0.16324233930E+02 -0.11743315941E+02 -0.40298770777E+02  0.45037506690E+02  0.00000000000E+00 0. -1.
       -4    1    6    6    0  502  0.15758931839E+03 -0.40906424986E+01 -0.15557001637E+02  0.15840816559E+03  0.00000000000E+00 0.  1.
</event>
<event>
12   0  0.1544783E-01  0.2342077E+03  0.7957747E-01  0.1130801E+00
       21   -1    0    0  501  503  0.00000000000E+00  0.00000000000E+00  0.14606350517E+03  0.14606350517E+03  0.00000000000E+00 0. -1.
       21   -1    0    0  503  504  0.00000000000E+00  0.00000000000E+00 -0.40397981281E+03  0.40397981281E+03  0.00000000000E+00 0. -1.
        6    2    1    2  501    0 -0.57894083485E+01  0.15816535948E+03 -0.55890901863E+02  0.24074163371E+03  0.17257735397E+03 0.  0.
       24    2    3    3    0    0  0.13219223857E+01  0.81042372376E+02 -0.10066527487E+03  0.15115725649E+03  0.78392633739E+02 0.  0.
       -6    2    1    2    0  504  0.57894083485E+01 -0.15816535948E+03 -0.20202540578E+03  0.30930168427E+03  0.17263681277E+03 0.  0.
      -24    2    5    5    0    0  0.15134712887E+02 -0.13647448811E+02 -0.10513357149E+03  0.13499483193E+03  0.82190172160E+02 0.  0.
        5    1    3    3  501    0 -0.71113307342E+01  0.77122987101E+02  0.44774373011E+02  0.89584377225E+02  0.47000000000E+01 0. -1.
        2    1    4    4  502    0 -0.18320272787E+02  0.86477119453E+02 -0.95502695808E+02  0.13013335272E+03  0.00000000000E+00 0. -1.
       -1    1    4    4    0  502  0.19642195173E+02 -0.54347470765E+01 -0.51625790661E+01  0.21023903767E+02  0.00000000000E+00 0.  1.
       -5    1    5    5    0  504 -0.93453045380E+01 -0.14451791067E+03 -0.96891834288E+02  0.17430685234E+03  0.47000000000E+01 0.  1.
       11    1    6    6    0    0  0.27388605385E+02 -0.43337038772E+02 -0.75720541940E+02  0.91443070302E+02  0.00000000000E+00 0. -1.
      -12    1    6    6    0    0 -0.12253892499E+02  0.29689589961E+02 -0.29413029551E+02  0.43551761626E+02  0.00000000000E+00 0.  1.
</event>
<event>
12   0  0.1544783E-01  0.1932136E+03  0.7957747E-01  0.1161641E+00
       21   -1    0    0  504  503  0.00000000000E+00  0.00000000000E+00  0.18326208222E+03  0.18326208222E+03  0.00000000000E+00 0.  1.
       21   -1    0    0  501  504  0.00000000000E+00  0.00000000000E+00 -0.20587040973E+03  0.20587040973E+03  0.00000000000E+00 0.  1.
        6    2    1    2  501    0  0.71797037462E+02 -0.44918874442E+02  0.22123549258E+02  0.19447610033E+03  0.17366341670E+03 0.  0.
       24    2    3    3    0    0 -0.52547071048E+01 -0.15408348758E+02 -0.38003216628E+02  0.92274532618E+02  0.82494337609E+02 0.  0.
       -6    2    1    2    0  503 -0.71797037462E+02  0.44918874442E+02 -0.44731876769E+02  0.19465639162E+03  0.16946282817E+03 0.  0.
      -24    2    5    5    0    0  0.13525827481E+02  0.24458879054E+02  0.15809653456E+02  0.87951332814E+02  0.81879832851E+02 0.  0.
        5    1    3    3  501    0  0.77051744566E+02 -0.29510525683E+02  0.60126765886E+02  0.10220156771E+03  0.47000000000E+01 0. -1.
        2    1    4    4  502    0 -0.31239050027E+02  0.18817524227E+02 -0.25370776355E+01  0.36556999707E+02  0.00000000000E+00 0. -1.
       -1    1    4    4    0  502  0.25984342922E+02 -0.34225872985E+02 -0.35466138993E+02  0.55717532912E+02  0.00000000000E+00 0.  1.
       -5    1    5    5    0  503 -0.85322864943E+02  0.20459995388E+02 -0.60541530225E+02  0.10670505881E+03  0.47000000000E+01 0.  1.
       13    1    6    6    0    0  0.37880197648E+02  0.10184676697E+02 -0.18626577481E+02  0.43423339368E+02  0.00000000000E+00 0. -1.
      -14    1    6    6    0    0 -0.24354370167E+02  0.14274202357E+02  0.34436230937E+02  0.44527993446E+02  0.00000000000E+00 0.  1.
</event>
<event>
12   0  0.1544783E-01  0.1862275E+03  0.7957747E-01  0.1167736E+00
       21   -1    0    0  504  503  0.00000000000E+00  0.00000000000E+00  0.56109661271E+02  0.56109661271E+02  0.00000000000E+00 0.  1.
       21   -1    0    0  501  504  0.00000000000E+00  0.00000000000E+00 -0.64622601743E+03  0.64622601743E+03  0.00000000000E+00 0. -1.
        6    2    1    2  501    0 -0.61400810887E+02 -0.32632753871E+02 -0.36973573848E+03  0.41398696314E+03  0.17275917672E+03 0.  0.
       24    2    3    3    0    0 -0.16239745630E+02 -0.76632841628E+02 -0.17126799415E+03  0.20569134370E+03  0.82703574893E+02 0.  0.
       -6    2    1    2    0  503  0.61400810887E+02  0.32632753871E+02 -0.22038061768E+03  0.28834871556E+03  0.17245987624E+03 0.  0.
      -24    2    5    5    0    0  0.15526011909E+02 -0.39825465619E+02 -0.73186122333E+02  0.11792864569E+03  0.81998976915E+02 0.  0.
        5    1    3    3  501    0 -0.45161065257E+02  0.44000087757E+02 -0.19846774433E+03  0.20829561944E+03  0.47000000000E+01 0. -1.
        4    1    4    4  502    0  0.75986113803E+01 -0.83199998272E+02 -0.15503329724E+03  0.17611161762E+03  0.00000000000E+00 0. -1.
       -3    1    4    4    0  502 -0.23838357010E+02  0.65671566440E+01 -0.16234696905E+02  0.29579726079E+02  0.00000000000E+00 0.  1.
       -5    1    5    5    0  503  0.45874798979E+02  0.72458219491E+02 -0.14719449535E+03  0.17042006987E+03  0.47000000000E+01 0.  1.
       11    1    6    6    0    0 -0.33435840185E+02 -0.10261448256E+02 -0.23213278318E+02  0.41977482290E+02  0.00000000000E+00 0. -1.
      -12    1    6    6    0    0  0.48961852094E+02 -0.29564017363E+02 -0.49972844015E+02  0.75951163401E+02  0.00000000000E+00 0.  1.
</event>
<event>
12   0  0.1544783E-01  0.1824856E+03  0.7957747E-01  0.1171123E+00
       21   -1    0    0  501  503  0.00000000000E+00  0.00000000000E+00  0.11846923203E+03  0.11846923203E+03  0.00000000000E+00 0.  1.
       21   -1    0    0  503  504  0.00000000000E+00  0.00000000000E+00 -0.42639278269E+03  0.42639278269E+03  0.00000000000E+00 0.  1.
        6    2    1    2  501    0  0.41148179366E+02  0.31735604926E+02  0.55140906868E+01  0.18256892272E+03  0.17493051495E+03 0.  0.
       24    2    3    3    0    0  0.69093838615E+02 -0.30784653722E+02 -0.55764619408E+01  0.11303595953E+03  0.83811561131E+02 0.  0.
       -6    2    1    2    0  504 -0.41148179366E+02 -0.31735604926E+02 -0.31343764135E+03  0.36229309201E+03  0.17410573862E+03 0.  0.
      -24    2    5    5    0    0  0.35564496426E+02 -0.29687606187E+02 -0.91515935139E+02  0.12743065863E+03  0.75612294026E+02 0.  0.
        5    1    3    3  501    0 -0.27945659249E+02  0.62520258647E+02  0.11090552628E+02  0.69532963189E+02  0.47000000000E+01 0. -1.
        4    1    4    4  502    0  0.57355132793E+02 -0.37537744854E+01 -0.38245300870E+02  0.69039156421E+02  0.00000000000E+00 0. -1.
       -3    1    4    4    0  502  0.11738705822E+02 -0.27030879236E+02  0.32668838929E+02  0.43996803107E+02  0.00000000000E+00 0.  1.
       -5    1    5    5    0  504 -0.76712675792E+02 -0.20479987382E+01 -0.22192170621E+03  0.23486243338E+03  0.47000000000E+01 0.  1.
       13    1    6    6    0    0 -0.56196397999E+01 -0.39326441810E+01  0.11583318108E+02  0.13461771805E+02  0.00000000000E+00 0. -1.
      -14    1    6    6    0    0  0.41184136226E+02 -0.25754962006E+02 -0.10309925325E+03  0.11396888683E+03  0.00000000000E+00 0.  1.
</event>
<event>
12   0  0.1544783E-01  0.2743195E+03  0.7957747E-01  0.1106662E+00
       21   -1    0    0  501  503  0.00000000000E+00  0.00000000000E+00  0.27569400881E+03  0.27569400881E+03  0.00000000000E+00 0.  1.
       21   -1    0    0  503  504  0.00000000000E+00  0.00000000000E+00 -0.46991150902E+03  0.46991150902E+03  0.00000000000E+00 0.  1.
        6    2    1    2  501    0  0.70559221133E+02  0.20055312634E+03  0.14449396348E+03  0.30974238590E+03  0.17280532390E+03 0.  0.
       24    2    3    3    0    0  0.41782024477E+02  0.17931058754E+03  0.17237086624E+03  0.26415089317E+03  0.78523591742E+02 0.  0.
       -6    2    1    2    0  504 -0.70559221133E+02 -0.20055312634E+03 -0.33871146369E+03  0.43586313194E+03  0.17335239826E+03 0.  0.
      -24    2    5    5    0    0 -0.72910098100E+02 -0.13498316100E+03 -0.32623609785E+03  0.36891037450E+03  0.78284971161E+02 0.  0.
        5    1    3    3  501    0  0.28777196655E+02  0.21242538797E+02 -0.27876902759E+02  0.45591492729E+02  0.47000000000E+01 0. -1.
      -11    1    4    4    0    0  0.18902652994E+02  0.13021268687E+03  0.16250191037E+03  0.20909214473E+03  0.00000000000E+00 0.  1.
       12    1    4    4    0    0  0.22879371483E+02  0.49097900670E+02  0.98689558624E+01  0.55058748438E+02  0.00000000000E+00 0. -1.
       -5    1    5    5    0  504  0.23508769672E+01 -0.65569965334E+02 -0.12475365831E+02  0.66952757442E+02  0.47000000000E+01 0.  1.
        1    1    6    6  502    0  0.69943030933E+01 -0.36024140832E+02 -0.12983229542E+03  0.13491880496E+03  0.00000000000E+00 0. -1.
       -2    1    6    6    0  502 -0.79904401193E+02 -0.98959020171E+02 -0.19640380244E+03  0.23399156954E+03  0.00000000000E+00 0.  1.
</event>
<event>
12   0  0.1544783E-01  0.2095770E+03  0.7957747E-01  0.1148408E+00
       -1   -1    0    0    0  501  0.00000000000E+00  0.00000000000E+00  0.14180212928E+03  0.14180212928E+03  0.00000000000E+00 0. -1.
        1   -1    0    0  502    0  0.00000000000E+00  0.00000000000E+00 -0.53717678080E+03  0.53717678080E+03  0.00000000000E+00 0.  1.
        6    2    1    2  502    0 -0.14937934138E+02 -0.11935726791E+03 -0.41908238132E+03  0.46897762515E+03  0.17274452604E+03 0.  0.
       24    2    3    3    0    0 -0.53330254323E+02 -0.75774171802E+02 -0.37857093660E+03  0.39800774655E+03  0.80674476349E+02 0.  0.
       -6    2    1    2    0  501  0.14937934138E+02  0.11935726791E+03  0.23707729804E+02  0.21000128493E+03  0.17049687370E+03 0.  0.
      -24    2    5    5    0    0 -0.29898824831E+01  0.14091506378E+03 -0.13805601398E+02  0.16293234411E+03  0.80562767652E+02 0.  0.
        5    1    3    3  502    0  0.38392320185E+02 -0.43583096103E+02 -0.40511444724E+02  0.70969878602E+02  0.47000000000E+01 0. -1.
      -11    1    4    4    0    0 -0.39552355367E+02 -0.89342627784E+02 -0.35090428002E+03  0.36425308193E+03  0.00000000000E+00 0.  1.
       12    1    4    4    0    0 -0.13777898956E+02  0.13568455983E+02 -0.27666656574E+02  0.33754664617E+02  0.00000000000E+00 0. -1.
       -5    1    5    5    0  501  0.17927816621E+02 -0.21557795871E+02  0.37513331202E+02  0.47068940815E+02  0.47000000000E+01 0.  1.
        1    1    6    6  503    0 -0.10661887240E+02  0.72620785537E+02 -0.46436556454E+02  0.86855098335E+02  0.00000000000E+00 0. -1.
       -2    1    6    6    0  503  0.76720047572E+01  0.68294278239E+02  0.32630955056E+02  0.76077245777E+02  0.00000000000E+00 0.  1.
</event>
<event>
12   0  0.1544783E-01  0.2179443E+03  0.7957747E-01  0.1142142E+00
       -2   -1    0    0    0  501  0.00000000000E+00  0.00000000000E+00  0.36704191405E+03  0.36704191405E+03  0.00000000000E+00 0. -1.
        2   -1    0    0  502    0  0.00000000000E+00  0.00000000000E+00 -0.14582054296E+03  0.14582054296E+03  0.00000000000E+00 0.  1.
        6    2    1    2  502    0 -0.55237512396E+02  0.12305119600E+03  0.24437911639E+02  0.21896835662E+03  0.17075464873E+03 0.  0.
       24    2    3    3    0    0 -0.44010022136E+02  0.98216616064E+00 -0.91109714999E+01  0.91789261863E+02  0.80027570829E+02 0.  0.
       -6    2    1    2    0  501  0.55237512396E+02 -0.12305119600E+03  0.19678345944E+03  0.29389410039E+03  0.17163109486E+03 0.  0.
      -24    2    5    5    0    0 -0.30097347714E+02 -0.38520530326E+02  0.56824916677E+02  0.10940031870E+03  0.79684860425E+02 0.  0.
        5    1    3    3  502    0 -0.11227490260E+02  0.12206902984E+03  0.33548883139E+02  0.12717909476E+03  0.47000000000E+01 0. -1.
      -11    1    4    4    0    0  0.19300005950E+02  0.16728720022E+02 -0.71417563299E+01  0.26520652079E+02  0.00000000000E+00 0.  1.
       12    1    4    4    0    0 -0.63310028085E+02 -0.15746553861E+02 -0.19692151700E+01  0.65268609783E+02  0.00000000000E+00 0. -1.
       -5    1    5    5    0  501  0.85334860110E+02 -0.84530665671E+02  0.13995854277E+03  0.18449378169E+03  0.47000000000E+01 0.  1.
        3    1    6    6  503    0 -0.22221306312E+02 -0.60116351067E+02  0.22176632760E+02  0.67820094076E+02  0.00000000000E+00 0. -1.
       -4    1    6    6    0  503 -0.78760414023E+01  0.21595820741E+02  0.34648283917E+02  0.41580224627E+02  0.00000000000E+00 0.  1.
</event>
<event>
12   0  0.1544783E-01  0.2189535E+03  0.7957747E-01  0.1141407E+00
       21   -1    0    0  504  503  0.00000000000E+00  0.00000000000E+00  0.36590775495E+03  0.36590775495E+03  0.00000000000E+00 0. -1.
       21   -1    0    0  501  504  0.00000000000E+00  0.00000000000E+00 -0.13028641864E+03  0.13028641864E+03  0.00000000000E+00 0.  1.
        6    2    1    2  501    0 -0.95973267946E+02 -0.85219896032E+02  0.90986521929E+02  0.23710583060E+03  0.17739032919E+03 0.  0.
       24    2    3    3    0    0 -0.64885731037E+02 -0.12274478893E+03  0.40744553957E+02  0.16695671882E+03  0.83294573531E+02 0.  0.
       -6    2    1    2    0  503  0.95973267946E+02  0.85219896032E+02  0.14463481439E+03  0.25908834299E+03  0.17243619429E+03 0.  0.
      -24    2    5    5    0    0  0.86013827523E+02  0.11874395262E+03  0.71748524021E+02  0.17810961648E+03  0.71250824387E+02 0.  0.
        5    1    3    3  501    0 -0.31087536908E+02  0.37524892896E+02  0.50241967972E+02  0.70149111781E+02  0.47000000000E+01 0. -1.
        2    1    4    4  502    0  0.31471610372E+00 -0.86107203669E+02  0.31082789382E+02  0.91546105136E+02  0.00000000000E+00 0. -1.
       -1    1    4    4    0  502 -0.65200447141E+02 -0.36637585260E+02  0.96617645749E+01  0.75410613681E+02  0.00000000000E+00 0.  1.
       -5    1    5    5    0  503  0.99594404226E+01 -0.33524056589E+02  0.72886290365E+02  0.80978726508E+02  0.47000000000E+01 0.  1.
       11    1    6    6    0    0  0.67348767027E+01  0.59451034895E+02  0.46946685052E+02  0.76051136426E+02  0.00000000000E+00 0. -1.
      -12    1    6    6    0    0  0.79278950820E+02  0.59292917726E+02  0.24801838969E+02  0.10205848006E+03  0.00000000000E+00 0.  1.
</event>
<event>
12   0  0.1544783E-01  0.1981325E+03  0.7957747E-01  0.1157516E+00
       21   -1    0    0  501  503  0.00000000000E+00  0.00000000000E+00  0.33668747194E+03  0.33668747194E+03  0.00000000000E+00 0. -1.
       21   -1    0    0  503  504  0.00000000000E+00  0.00000000000E+00 -0.12069388976E+03  0.12069388976E+03  0.00000000000E+00 0.  1.
        6    2    1    2  501    0  0.31210606305E+02 -0.89012289471E+02  0.62729152164E+02  0.20782546316E+03  0.17423887908E+03 0.  0.
       24    2    3    3    0    0  0.52490276887E+01 -0.98834668787E+02 -0.10664640236E+02  0.12921743900E+03  0.82386697619E+02 0.  0.
       -6    2    1    2    0  504 -0.31210606305E+02  0.89012289471E+02  0.15326443001E+03  0.24955589854E+03  0.17288976652E+03 0.  0.
      -24    2    5    5    0    0 -0.29520982945E+02  0.12319053628E+03  0.85315199597E+02  0.17333126147E+03  0.81961248523E+02 0.  0.
        5    1    3    3  501    0  0.25961578617E+02  0.98223793167E+01  0.73393792400E+02  0.78608024161E+02  0.47000000000E+01 0. -1.
      -11    1    4    4    0    0  0.34148561544E+01 -0.45359553242E+02 -0.46318885866E+02  0.64919869845E+02  0.00000000000E+00 0.  1.
       12    1    4    4    0    0  0.18341715343E+01 -0.53475115545E+02  0.35654245630E+02  0.64297569155E+02  0.00000000000E+00 0. -1.
       -5    1    5    5    0  504 -0.16896233608E+01 -0.34178246805E+02  0.67949230418E+02  0.76224637068E+02  0.47000000000E+01 0.  1.
        1    1    6    6  502    0 -0.10171220011E+02  0.60085991531E+02  0.88267156421E+02  0.10726076169E+03  0.00000000000E+00 0. -1.
       -2    1    6    6    0  502 -0.19349762933E+02  0.63104544745E+02 -0.29519568240E+01  0.66070499787E+02  0.00000000000E+00 0.  1.
</event>
<event>
12   0  0.1544783E-01  0.2146440E+03  0.7957747E-01  0.1144576E+00
       21   -1    0    0  501  503  0.00000000000E+00  0.00000000000E+00  0.19781801217E+03  0.19781801217E+03  0.00000000000E+00 0. -1.
       21   -1    0    0  503  504  0.00000000000E+00  0.00000000000E+00 -0.34646509288E+03  0.34646509288E+03  0.00000000000E+00 0.  1.
        6    2    1    2  501    0  0.10967377079E+03  0.57982502762E+02  0.82342639328E+02  0.22989638497E+03  0.17516201342E+03 0.  0.
       24    2    3    3    0    0  0.80248392482E+02  0.10821626695E+03  0.62044381535E+02  0.16806279198E+03  0.79025513849E+02 0.  0.
       -6    2    1    2    0  504 -0.10967377079E+03 -0.57982502762E+02 -0.23098972004E+03  0.31438672008E+03  0.17347176248E+03 0.  0.
      -24    2    5    5    0    0 -0.54290878656E+01  0.16347054081E+02 -0.11827269904E+03  0.14374366057E+03  0.79856793346E+02 0.  0.
        5    1    3    3  501    0  0.29425378306E+02 -0.50233764189E+02  0.20298257794E+02  0.61833592993E+02  0.47000000000E+01 0. -1.
        4    1    4    4  502    0  0.75691089833E+01  0.37915859288E+02  0.54289121183E+02  0.66649924795E+02  0.00000000000E+00 0. -1.
       -3    1    4    4    0  502  0.72679283499E+02  0.70300407663E+02  0.77552603523E+01  0.10141286719E+03  0.00000000000E+00 0.  1.
       -5    1    5    5    0  504 -0.10424468292E+03 -0.74329556844E+02 -0.11271702100E+03  0.17064305952E+03  0.47000000000E+01 0.  1.
       13    1    6    6    0    0  0.32784596234E+02 -0.10502879328E+02 -0.41974123887E+02  0.54285977015E+02  0.00000000000E+00 0. -1.
      -14    1    6    6    0    0 -0.38213684100E+02  0.26849933409E+02 -0.76298575152E+02  0.89457683553E+02  0.00000000000E+00 0.  1.
</event>
<event>
12   0  0.1544783E-01  0.2027236E+03  0.7957747E-01  0.1153783E+00
       21   -1    0    0  504  503  0.00000000000E+00  0.00000000000E+00  0.28093917933E+03  0.28093917933E+03  0.00000000000E+00 0.  1.
       21   -1    0    0  501  504  0.00000000000E+00  0.00000000000E+00 -0.18007301296E+03  0.18007301296E+03  0.00000000000E+00 0.  1.
        6    2    1    2  501    0  0.11604913143E+02  0.10383365525E+03 -0.51675790596E+02  0.20730784145E+03  0.17143527006E+03 0.  0.
       24    2    3    3    0    0  0.23870696809E+02  0.13985130973E+03 -0.39239884381E+02  0.16700321831E+03  0.78880335946E+02 0.  0.
       -6    2    1    2    0  503 -0.11604913143E+02 -0.10383365525E+03  0.15254195697E+03  0.25370435084E+03  0.17372606894E+03 0.  0.
      -24    2    5    5    0    0  0.14122105627E+01 -0.28097546742E+02  0.24309569864E+01  0.85001043355E+02  0.80173570134E+02 0.  0.
        5    1    3    3  501    0 -0.12265783666E+02 -0.36017654482E+02 -0.12435906215E+02  0.40304623144E+02  0.47000000000E+01 0. -1.
      -11    1    4    4    0    0 -0.21237748948E+02  0.96440623189E+02 -0.32859712745E+02  0.10407495618E+03  0.00000000000E+00 0.  1.
       12    1    4    4    0    0  0.45108445757E+02  0.43410686544E+02 -0.63801716358E+01  0.62928262132E+02  0.00000000000E+00 0. -1.
       -5    1    5    5    0  503 -0.13017123705E+02 -0.75736108510E+02  0.15011099998E+03  0.16870330749E+03  0.47000000000E+01 0.  1.
        3    1    6    6  502    0 -0.28009805397E+02 -0.94970744522E+01 -0.26521303031E+02  0.39725597994E+02  0.00000000000E+00 0. -1.
       -4    1    6    6    0  502  0.29422015959E+02 -0.18600472289E+02  0.28952260018E+02  0.45275445361E+02  0.00000000000E+00 0.  1.
</event>
<event>
12   0  0.1544783E-01  0.1741828E+03  0.7957747E-01  0.1178968E+00
       21   -1    0    0  504  503  0.00000000000E+00  0.00000000000E+00  0.24628016910E+03  0.24628016910E+03  0.00000000000E+00 0.  1.
       21   -1    0    0  501  504  0.00000000000E+00  0.00000000000E+00 -0.13785882869E+03  0.13785882869E+03  0.00000000000E+00 0.  1.
        6    2    1    2  501    0 -0.24808535396E+00 -0.27349018262E+02 -0.87120143916E+01  0.17423457466E+03  0.17185388406E+03 0.  0.
       24    2    3    3    0    0 -0.16896089541E+02 -0.80229578395E+02 -0.20944966595E+02  0.11726752451E+03  0.81183234650E+02 0.  0.
       -6    2    1    2    0  503  0.24808535396E+00  0.27349018262E+02  0.11713335480E+03  0.20990442313E+03  0.17202213141E+03 0.  0.
      -24    2    5    5    0    0  0.27600024011E+02  0.66302638869E+02  0.11309326625E+03  0.16190519998E+03  0.90914276460E+02 0.  0.
        5    1    3    3  501    0  0.16648004187E+02  0.52880560133E+02  0.12232952203E+02  0.56967050152E+02  0.47000000000E+01 0. -1.
      -13    1    4    4    0    0 -0.14799944310E+02 -0.78724601596E+02  0.14774630234E+02  0.81454839921E+02  0.00000000000E+00 0.  1.
       14    1    4    4    0    0 -0.20961452302E+01 -0.15049767992E+01 -0.35719596829E+02  0.35812684591E+02  0.00000000000E+00 0. -1.
       -5    1    5    5    0  503 -0.27351938657E+02 -0.38953620607E+02  0.40400885525E+01  0.47999223142E+02  0.47000000000E+01 0.  1.
        3    1    6    6  502    0  0.58436380946E+02  0.40098791703E+02  0.92415859072E+02  0.11646207418E+03  0.00000000000E+00 0. -1.
       -4    1    6    6    0  502 -0.30836356934E+02  0.26203847166E+02  0.20677407177E+02  0.45443125804E+02  0.00000000000E+00 0.  1.
</event>
<event>
12   0  0.1544783E-01  0.1953689E+03  0.7957747E-01  0.1159817E+00
       21   -1    0    0  504  503  0.00000000000E+00  0.00000000000E+00  0.85132556176E+02  0.85132556176E+02  0.00000000000E+00 0. -1.
       21   -1    0    0  501  504  0.00000000000E+00  0.00000000000E+00 -0.44364322854E+03  0.44364322854E+03  0.00000000000E+00 0. -1.
        6    2    1    2  501    0  0.82389199452E+02  0.24526267911E+02 -0.16688200938E+03  0.25511443438E+03  0.17275488871E+03 0.  0.
       24    2    3    3    0    0  0.67897750037E+02  0.79720550742E+02 -0.13654169960E+03  0.19031447018E+03  0.81304927026E+02 0.  0.
       -6    2    1    2    0  503 -0.82389199452E+02 -0.24526267911E+02 -0.19162866299E+03  0.27366135033E+03  0.17544079396E+03 0.  0.
      -24    2    5    5    0    0 -0.11586991275E+03  0.64874557188E+01 -0.16973264566E+03  0.22282499729E+03  0.85871326134E+02 0.  0.
        5    1    3    3  501    0  0.14491449415E+02 -0.55194282831E+02 -0.30340309775E+02  0.64799964202E+02  0.47000000000E+01 0. -1.
      -13    1    4    4    0    0  0.48433046581E+02 -0.19129328263E+01 -0.45242659809E+02  0.66304732710E+02  0.00000000000E+00 0.  1.
       14    1    4    4    0    0  0.19464703456E+02  0.81633483568E+02 -0.91299039795E+02  0.12400973747E+03  0.00000000000E+00 0. -1.
       -5    1    5    5    0  503  0.33480713295E+02 -0.31013723629E+02 -0.21896017324E+02  0.50836353044E+02  0.47000000000E+01 0.  1.
        1    1    6    6  502    0 -0.78217960176E+02 -0.13667245582E+02 -0.16059356944E+03  0.17915115808E+03  0.00000000000E+00 0. -1.
       -2    1    6    6    0  502 -0.37651952572E+02  0.20154701301E+02 -0.91390762194E+01  0.43673839208E+02  0.00000000000E+00 0.  1.
</event>
<event>
12   0  0.1544783E-01  0.1812258E+03  0.7957747E-01  0.1172284E+00
       21   -1    0    0  504  503  0.00000000000E+00  0.00000000000E+00  0.49763038924E+03  0.49763038924E+03  0.00000000000E+00 0.  1.
       21   -1    0    0  501  504  0.00000000000E+00  0.00000000000E+00 -0.76154091405E+02  0.76154091405E+02  0.00000000000E+00 0.  1.
        6    2    1    2  501    0 -0.13294236354E+02  0.50646896074E+02  0.10540493111E+03  0.20964966572E+03  0.17349621907E+03 0.  0.
       24    2    3    3    0    0  0.10389612622E+02  0.22583675065E+01 -0.26403527643E+02  0.67178846957E+02  0.60850693770E+02 0.  0.
       -6    2    1    2    0  503  0.13294236354E+02 -0.50646896074E+02  0.31607136672E+03  0.36413481492E+03  0.17306417820E+03 0.  0.
      -24    2    5    5    0    0  0.64495974201E+02  0.11466224961E+01  0.18638160251E+03  0.21532046257E+03  0.86393022969E+02 0.  0.
        5    1    3    3  501    0 -0.23683848976E+02  0.48388528568E+02  0.13180845876E+03  0.14247081876E+03  0.47000000000E+01 0. -1.
      -11    1    4    4    0    0 -0.23634893313E+02 -0.98717958842E+01 -0.12099227592E+02  0.28327580981E+02  0.00000000000E+00 0.  1.
       12    1    4    4    0    0  0.34024505935E+02  0.12130163391E+02 -0.14304300050E+02  0.38851265976E+02  0.00000000000E+00 0. -1.
       -5    1    5    5    0  503 -0.51201737846E+02 -0.51793518570E+02  0.12968976421E+03  0.14881435235E+03  0.47000000000E+01 0.  1.
        1    1    6    6  502    0  0.34593726510E+02  0.43328037873E+02  0.84433181097E+02  0.10100993441E+03  0.00000000000E+00 0. -1.
       -2    1    6    6    0  502  0.29902247690E+02 -0.42181415377E+02  0.10194842141E+03  0.11431052816E+03  0.00000000000E+00 0.  1.
</event>
<event>
12   0  0.1544783E-01  0.2124403E+03  0.7957747E-01  0.1146228E+00
       21   -1    0    0  504  503  0.00000000000E+00  0.00000000000E+00  0.30990608141E+03  0.30990608141E+03  0.00000000000E+00 0. -1.
       21   -1    0    0  501  504  0.00000000000E+00  0.00000000000E+00 -0.25143158690E+03  0.25143158690E+03  0.00000000000E+00 0.  1.
        6    2    1    2  501    0  0.70128785361E+02  0.99429654097E+02 -0.15510689954E+03  0.26009377496E+03  0.16966531418E+03 0.  0.
       24    2    3    3    0    0  0.55483587084E+02  0.77806235029E+02 -0.25563712638E+02  0.12786071798E+03  0.81010006504E+02 0.  0.
       -6    2    1    2    0  503 -0.70128785361E+02 -0.99429654097E+02  0.21358139405E+03  0.30124389336E+03  0.17414525188E+03 0.  0.
      -24    2    5    5    0    0 -0.65215409872E+02  0.46761890587E+01  0.88864380776E+02  0.13864441231E+03  0.83967127292E+02 0.  0.
        5    1    3    3  501    0  0.14645198276E+02  0.21623419068E+02 -0.12954318690E+03  0.13223305697E+03  0.47000000000E+01 0. -1.
        2    1    4    4  502    0  0.42689159396E+02  0.77547130259E+01  0.14999997280E+02  0.45907513791E+02  0.00000000000E+00 0. -1.
       -1    1    4    4    0  502  0.12794427688E+02  0.70051522003E+02 -0.40563709918E+02  0.81953204191E+02  0.00000000000E+00 0.  1.
       -5    1    5    5    0  503 -0.49133754884E+01 -0.10410584316E+03  0.12471701327E+03  0.16259948105E+03  0.47000000000E+01 0.  1.
       13    1    6    6    0    0 -0.94317090016E+01 -0.17757064527E+02  0.74035658284E+02  0.76717332936E+02  0.00000000000E+00 0. -1.
      -14    1    6    6    0    0 -0.55783700871E+02  0.22433253586E+02  0.14828722492E+02  0.61927079376E+02  0.00000000000E+00 0.  1.
</event>
<event>
12   0  0.1544783E-01  0.1882470E+03  0.7957747E-01  0.1165944E+00
       21   -1    0    0  504  503  0.00000000000E+00  0.00000000000E+00  0.83142014853E+02  0.83142014853E+02  0.00000000000E+00 0.  1.
       21   -1    0    0  501  504  0.00000000000E+00  0.00000000000E+00 -0.72546561091E+03  0.72546561091E+03  0.00000000000E+00 0. -1.
        6    2    1    2  501    0 -0.39453983822E+01  0.78962493432E+02 -0.58170942866E+03  0.61084255991E+03  0.16879612577E+03 0.  0.
       24    2    3    3    0    0 -0.29221289359E+02  0.10682973247E+02 -0.15234383787E+03  0.17532233755E+03  0.81001650818E+02 0.  0.
       -6    2    1    2    0  503  0.39453983822E+01 -0.78962493432E+02 -0.60614167398E+02  0.19776506585E+03  0.17083999076E+03 0.  0.
      -24    2    5    5    0    0  0.27901030262E+02 -0.76391445605E+02 -0.98989418060E+02  0.15221034657E+03  0.82188589612E+02 0.  0.
        5    1    3    3  501    0  0.25275890977E+02  0.68279520185E+02 -0.42936559078E+03  0.43552022237E+03  0.47000000000E+01 0. -1.
        2    1    4    4  502    0 -0.47759634156E+02  0.29379300912E+02 -0.12677093209E+03  0.13861816331E+03  0.00000000000E+00 0. -1.
       -1    1    4    4    0  502  0.18538344797E+02 -0.18696327665E+02 -0.25572905782E+02  0.36704174233E+02  0.00000000000E+00 0.  1.
       -5    1    5    5    0  503 -0.23955631879E+02 -0.25710478266E+01  0.38375250662E+02  0.45554719284E+02  0.47000000000E+01 0.  1.
       13    1    6    6    0    0 -0.28880718136E+02 -0.32487515510E+02 -0.31436244342E+02  0.53644869302E+02  0.00000000000E+00 0. -1.
      -14    1    6    6    0    0  0.56781748398E+02 -0.43903930095E+02 -0.67553173718E+02  0.98565477264E+02  0.00000000000E+00 0.  1.
</event>
<event>
12   0  0.1544783E-01  0.2117592E+03  0.7957747E-01  0.1146743E+00
       -2   -1    0    0    0  501  0.00000000000E+00  0.00000000000E+00  0.12884850699E+03  0.12884850699E+03  0.00000000000E+00 0.  1.
        2   -1    0    0  502    0  0.00000000000E+00  0.00000000000E+00 -0.36970330895E+03  0.36970330895E+03  0.00000000000E+00 0. -1.
        6    2    1    2  502    0 -0.50241960794E+02 -0.12425436141E+03 -0.63713141117E+02  0.22701061112E+03  0.17178781172E+03 0.  0.
       24    2    3    3    0    0 -0.89717568187E+02 -0.78837458393E+02 -0.86048379240E+01  0.14527913775E+03  0.82264194774E+02 0.  0.
       -6    2    1    2    0  501  0.50241960794E+02  0.12425436141E+03 -0.17714166083E+03  0.27154120482E+03  0.15617956638E+03 0.  0.
      -24    2    5    5    0    0  0.12096523211E+02  0.96962769811E+02 -0.52777180221E+02  0.13854301152E+03  0.82828924218E+02 0.  0.
        5    1    3    3  502    0  0.39475607393E+02 -0.45416903020E+02 -0.55108303193E+02  0.81731473373E+02  0.47000000000E+01 0. -1.
      -13    1    4    4    0    0 -0.75499371202E+02 -0.21329083959E+02  0.17756463684E+02  0.80438652879E+02  0.00000000000E+00 0.  1.
       14    1    4    4    0    0 -0.14218196985E+02 -0.57508374434E+02 -0.26361301608E+02  0.64840484869E+02  0.00000000000E+00 0. -1.
       -5    1    5    5    0  501  0.38145437583E+02  0.27291591602E+02 -0.12436448061E+03  0.13299819329E+03  0.47000000000E+01 0.  1.
        3    1    6    6  503    0  0.30746085489E+02  0.77313988103E+02 -0.68011350875E+02  0.10746310240E+03  0.00000000000E+00 0. -1.
       -4    1    6    6    0  503 -0.18649562279E+02  0.19648781708E+02  0.15234170654E+02  0.31079909127E+02  0.00000000000E+00 0.  1.
</event>
<event>
12   0  0.1544783E-01  0.1898426E+03  0.7957747E-01  0.1164546E+00
       21   -1    0    0  501  503  0.00000000000E+00  0.00000000000E+00  0.80421414111E+03  0.80421414111E+03  0.00000000000E+00 0.  1.
       21   -1    0    0  503  504  0.00000000000E+00  0.00000000000E+00 -0.71077704576E+02  0.71077704576E+02  0.00000000000E+00 0. -1.
        6    2    1    2  501    0  0.43940025709E+01  0.77205542986E+02  0.63271860454E+03  0.66058537685E+03  0.17337878895E+03 0.  0.
       24    2    3    3    0    0  0.48498102926E+02  0.81914519738E+02  0.31074515184E+03  0.33553716447E+03  0.83430119372E+02 0.  0.
       -6    2    1    2    0  504 -0.43940025709E+01 -0.77205542986E+02  0.10041783199E+03  0.21470646883E+03  0.17330644434E+03 0.  0.
      -24    2    5    5    0    0  0.40421779984E+02 -0.87763909826E+02  0.11099752705E+03  0.16723064947E+03  0.79430566819E+02 0.  0.
        5    1    3    3  501    0 -0.44104100355E+02 -0.47089767518E+01  0.32197345270E+03  0.32504821239E+03  0.47000000000E+01 0. -1.
      -13    1    4    4    0    0 -0.21495635388E+02  0.42893074852E+01  0.60057633104E+02  0.63932619166E+02  0.00000000000E+00 0.  1.
       14    1    4    4    0    0  0.69993738314E+02  0.77625212252E+02  0.25068751873E+03  0.27160454530E+03  0.00000000000E+00 0. -1.
       -5    1    5    5    0  504 -0.44815782555E+02  0.10558366840E+02 -0.10579695059E+02  0.47475819360E+02  0.47000000000E+01 0.  1.
        3    1    6    6  502    0  0.43808491284E+02 -0.33915291092E+02  0.15474616006E+02  0.57522992090E+02  0.00000000000E+00 0. -1.
       -4    1    6    6    0  502 -0.33867113000E+01 -0.53848618734E+02  0.95522911045E+02  0.10970765738E+03  0.00000000000E+00 0.  1.
</event>
<event>
12   0  0.1544783E-01  0.2059454E+03  0.7957747E-01  0.1151228E+00
       21   -1    0    0  504  503  0.00000000000E+00  0.00000000000E+00  0.39633552019E+03  0.39633552019E+03  0.00000000000E+00 0. -1.
       21   -1    0    0  501  504  0.00000000000E+00  0.00000000000E+00 -0.10681776480E+03  0.10681776480E+03  0.00000000000E+00 0. -1.
        6    2    1    2  501    0 -0.22169936445E+02  0.10997085060E+03  0.15010060829E+03  0.25445537308E+03  0.17214020512E+03 0.  0.
       24    2    3    3    0    0 -0.46486258691E+02  0.10105016565E+03  0.42338561383E+02  0.14352471501E+03  0.80216468459E+02 0.  0.
       -6    2    1    2    0  503  0.22169936445E+02 -0.10997085060E+03  0.13941714710E+03  0.24869791191E+03  0.17270905135E+03 0.  0.
      -24    2    5    5    0    0  0.77224726045E+02 -0.82591090295E+02  0.11961462428E+03  0.18392977898E+03  0.82082633650E+02 0.  0.
        5    1    3    3  501    0  0.24316322246E+02  0.89206849478E+01  0.10776204691E+03  0.11093065808E+03  0.47000000000E+01 0. -1.
      -11    1    4    4    0    0  0.18828618508E+02  0.38993002234E+01  0.58838688792E+00  0.19237141582E+02  0.00000000000E+00 0.  1.
       12    1    4    4    0    0 -0.65314877199E+02  0.97150865430E+02  0.41750174495E+02  0.12428757342E+03  0.00000000000E+00 0. -1.
       -5    1    5    5    0  503 -0.55054789599E+02 -0.27379760306E+02  0.19802522820E+02  0.64768132923E+02  0.47000000000E+01 0.  1.
        3    1    6    6  502    0  0.21272606568E+02 -0.18613674291E+02  0.89341858786E+02  0.93706778795E+02  0.00000000000E+00 0. -1.
       -4    1    6    6    0  502  0.55952119477E+02 -0.63977416004E+02  0.30272765494E+02  0.90223000189E+02  0.00000000000E+00 0.  1.
</event>
<event>
12   0  0.1544783E-01  0.2045485E+03  0.7957747E-01  0.1152329E+00
       21   -1    0    0  504  503  0.00000000000E+00  0.00000000000E+00  0.35265199081E+03  0.35265199081E+03  0.00000000000E+00 0. -1.
       21   -1    0    0  501  504  0.00000000000E+00  0.00000000000E+00 -0.11724457456E+03  0.11724457456E+03  0.00000000000E+00 0. -1.
        6    2    1    2  501    0  0.54234285724E+02 -0.93646101949E+02  0.12116252391E+03  0.23774028109E+03  0.17357745792E+03 0.  0.
       24    2    3    3    0    0 -0.29689302208E+02 -0.22185381829E+02  0.23810995750E+02  0.90603565193E+02  0.79173206798E+02 0.  0.
       -6    2    1    2    0  503 -0.54234285724E+02  0.93646101949E+02  0.11424489234E+03  0.23215628428E+03  0.17068595357E+03 0.  0.
      -24    2    5    5    0    0 -0.10173547456E+03  0.78643738093E+02  0.88584336782E+02  0.17592472754E+03  0.81039377529E+02 0.  0.
        5    1    3    3  501    0  0.83923587932E+02 -0.71460720120E+02  0.97351528156E+02  0.14713671590E+03  0.47000000000E+01 0. -1.
      -13    1    4    4    0    0  0.33637682082E+01  0.27221926403E+02  0.28693117295E+01  0.27578635997E+02  0.00000000000E+00 0.  1.
       14    1    4    4    0    0 -0.33053070416E+02 -0.49407308232E+02  0.20941684020E+02  0.63024929197E+02  0.00000000000E+00 0. -1.
       -5    1    5    5    0  503  0.47501188837E+02  0.15002363856E+02  0.25660555563E+02  0.56231556746E+02  0.47000000000E+01 0.  1.
        3    1    6    6  502    0 -0.28385868953E+02  0.68551720658E+02  0.24898561296E+02  0.78262598449E+02  0.00000000000E+00 0. -1.
       -4    1    6    6    0  502 -0.73349605608E+02  0.10092017436E+02  0.63685775485E+02  0.97662129088E+02  0.00000000000E+00 0.  1.
</event>
<event>
12   0  0.1544783E-01  0.2118524E+03  0.7957747E-01  0.1146673E+00
       21   -1    0    0  501  503  0.00000000000E+00  0.00000000000E+00  0.51314549674E+03  0.51314549674E+03  0.00000000000E+00 0.  1.
       21   -1    0    0  503  504  0.00000000000E+00  0.00000000000E+00 -0.10944752659E+03  0.10944752659E+03  0.00000000000E+00 0.  1.
        6    2    1    2  501    0  0.12035139108E+03 -0.25706194276E+02  0.62313447529E+02  0.22082668304E+03  0.17244185234E+03 0.  0.
       24    2    3    3    0    0 -0.51663195945E+01  0.10428896379E+02  0.24609951106E+02  0.84796965284E+02  0.80308299012E+02 0.  0.
       -6    2    1    2    0  504 -0.12035139108E+03  0.25706194276E+02  0.34138452262E+03  0.40176634029E+03  0.17241674556E+03 0.  0.
      -24    2    5    5    0    0 -0.29307608772E+02  0.19847080967E+02  0.27448562652E+03  0.28853713998E+03  0.81599506266E+02 0.  0.
        5    1    3    3  501    0  0.12551771067E+03 -0.36135090655E+02  0.37703496423E+02  0.13602971775E+03  0.47000000000E+01 0. -1.
        2    1    4    4  502    0 -0.13871826525E+01  0.42779128719E+02  0.29329762998E+02  0.51886540906E+02  0.00000000000E+00 0. -1.
       -1    1    4    4    0  502 -0.37791369420E+01 -0.32350232340E+02 -0.47198118923E+01  0.32910424379E+02  0.00000000000E+00 0.  1.
       -5    1    5    5    0  504 -0.91043782307E+02  0.58591133090E+01  0.66898896093E+02  0.11322920032E+03  0.47000000000E+01 0.  1.
       13    1    6    6    0    0  0.21420277922E+02  0.65135202996E+01  0.24838696684E+02  0.33439723473E+02  0.00000000000E+00 0. -1.
      -14    1    6    6    0    0 -0.50727886695E+02  0.13333560668E+02  0.24964692984E+03  0.25509741650E+03  0.00000000000E+00 0.  1.
</event>
<event>
12   0  0.1544783E-01  0.1847219E+03  0.7957747E-01  0.1169089E+00
       21   -1    0    0  504  503  0.00000000000E+00  0.00000000000E+00  0.56825047163E+02  0.56825047163E+02  0.00000000000E+00 0.  1.
       21   -1    0    0  501  504  0.00000000000E+00  0.00000000000E+00 -0.79527129185E+03  0.79527129185E+03  0.00000000000E+00 0.  1.
        6    2    1    2  501    0 -0.66838079336E+02 -0.11819643643E+02 -0.58061093119E+03  0.60928746847E+03  0.17179968858E+03 0.  0.
       24    2    3    3    0    0 -0.10872170071E+01 -0.59970454030E+02 -0.28459695922E+03  0.30222389518E+03  0.82135353086E+02 0.  0.
       -6    2    1    2    0  503  0.66838079336E+02  0.11819643643E+02 -0.15783531350E+03  0.24280887054E+03  0.17157251703E+03 0.  0.
      -24    2    5    5    0    0  0.35442671829E+02  0.51559760238E+02 -0.14917770644E+03  0.19121436851E+03  0.10195270848E+03 0.  0.
        5    1    3    3  501    0 -0.65750862329E+02  0.48150810386E+02 -0.29601397197E+03  0.30706357329E+03  0.47000000000E+01 0. -1.
        2    1    4    4  502    0  0.30858163253E+02 -0.24802726226E+02 -0.21058894010E+03  0.21427809771E+03  0.00000000000E+00 0. -1.
       -1    1    4    4    0  502 -0.31945380260E+02 -0.35167727803E+02 -0.74008019119E+02  0.87945797471E+02  0.00000000000E+00 0.  1.
       -5    1    5    5    0  503  0.31395407507E+02 -0.39740116595E+02 -0.86576070597E+01  0.51594502028E+02  0.47000000000E+01 0.  1.
       13    1    6    6    0    0  0.29250581841E+02 -0.21489876168E+02 -0.89850537067E+02  0.96904748733E+02  0.00000000000E+00 0. -1.
      -14    1    6    6    0    0  0.61920899875E+01  0.73049636406E+02 -0.59327169371E+02  0.94309619780E+02  0.00000000000E+00 0.  1.
</event>
<event>
12   0  0.1544783E-01  0.2410894E+03  0.7957747E-01  0.1126300E+00
       21   -1    0    0  501  503  0.00000000000E+00  0.00000000000E+00  0.69063064905E+02  0.69063064905E+02  0.00000000000E+00 0. -1.
       21   -1    0    0  503  504  0.00000000000E+00  0.00000000000E+00 -0.17961003859E+04  0.17961003859E+04  0.00000000000E+00 0.  1.
        6    2    1    2  501    0 -0.15070883752E+03  0.73319762459E+02 -0.18364628907E+03  0.30305590214E+03  0.17328583052E+03 0.  0.
       24    2    3    3    0    0 -0.17073991898E+03  0.93525605620E+02 -0.17122768474E+03  0.27165793954E+03  0.81116935656E+02 0.  0.
       -6    2    1    2    0  504  0.15070883752E+03 -0.73319762459E+02 -0.15433910319E+04  0.15621075486E+04  0.17330659217E+03 0.  0.
      -24    2    5    5    0    0  0.13088246833E+03 -0.24047471126E+02 -0.70015701647E+03  0.71718948255E+03  0.80202274260E+02 0.  0.
        5    1    3    3  501    0  0.20031081460E+02 -0.20205843161E+02 -0.12418604329E+02  0.31397962606E+02  0.47000000000E+01 0. -1.
      -11    1    4    4    0    0 -0.51599830990E+02  0.83600272349E+01 -0.88897270039E+01  0.53023201146E+02  0.00000000000E+00 0.  1.
       12    1    4    4    0    0 -0.11914008799E+03  0.85165578385E+02 -0.16233795774E+03  0.21863473839E+03  0.00000000000E+00 0. -1.
       -5    1    5    5    0  504  0.19826369188E+02 -0.49272291333E+02 -0.84323401543E+03  0.84491806608E+03  0.47000000000E+01 0.  1.
        1    1    6    6  502    0  0.52775135345E+02  0.29156832552E+02 -0.24325510884E+03  0.25061600861E+03  0.00000000000E+00 0. -1.
       -2    1    6    6    0  502  0.78107332990E+02 -0.53204303678E+02 -0.45690190762E+03  0.46657347394E+03  0.00000000000E+00 0.  1.
</event>
<event>
12   0  0.1544783E-01  0.2213949E+03  0.7957747E-01  0.1139647E+00
        2   -1    0    0  502    0  0.00000000000E+00  0.00000000000E+00  0.26822848980E+03  0.26822848980E+03  0.00000000000E+00 0. -1.
       -2   -1    0    0    0  501  0.00000000000E+00  0.00000000000E+00 -0.18359893680E+03  0.18359893680E+03  0.00000000000E+00 0.  1.
        6    2    1    2  502    0 -0.13182804587E+03 -0.43229987905E+02  0.26917953313E+02  0.22335766930E+03  0.17296417749E+03 0.  0.
       24    2    3    3    0    0 -0.13517823869E+03  0.53042574782E+01  0.55293256061E+02  0.16684179036E+03  0.80483212414E+02 0.  0.
       -6    2    1    2    0  501  0.13182804587E+03  0.43229987905E+02  0.57711599692E+02  0.22846975730E+03  0.17210559471E+03 0.  0.
      -24    2    5    5    0    0  0.15763096982E+03  0.52564825603E+02  0.26469616298E+02  0.18662383031E+03  0.80729362157E+02 0.  0.
        5    1    3    3  502    0  0.33501928269E+01 -0.48534245383E+02 -0.28375302749E+02  0.56515878946E+02  0.47000000000E+01 0. -1.
      -11    1    4    4    0    0 -0.55789823583E+02 -0.25529103992E+02 -0.63889978903E+01  0.61685159156E+02  0.00000000000E+00 0.  1.
       12    1    4    4    0    0 -0.79388415111E+02  0.30833361470E+02  0.61682253952E+02  0.10515663120E+03  0.00000000000E+00 0. -1.
       -5    1    5    5    0  501 -0.25802923953E+02 -0.93348376977E+01  0.31241983394E+02  0.41845926991E+02  0.47000000000E+01 0.  1.
        1    1    6    6  503    0  0.14750227327E+03  0.18863233375E+02  0.28354330931E+02  0.15138266174E+03  0.00000000000E+00 0. -1.
       -2    1    6    6    0  503  0.10128696547E+02  0.33701592228E+02 -0.18847146337E+01  0.35241168563E+02  0.00000000000E+00 0.  1.
</event>
<event>
12   0  0.1544783E-01  0.2387625E+03  0.7957747E-01  0.1127803E+00
       21   -1    0    0  501  503  0.00000000000E+00  0.00000000000E+00  0.20150038814E+03  0.20150038814E+03  0.00000000000E+00 0. -1.
       21   -1    0    0  503  504  0.00000000000E+00  0.00000000000E+00 -0.29847353145E+03  0.29847353145E+03  0.00000000000E+00 0.  1.
        6    2    1    2  501    0  0.51818033642E+00 -0.16429026699E+03  0.97357556312E+01  0.23845081409E+03  0.17254693698E+03 0.  0.
       24    2    3    3    0    0 -0.59657383479E+02 -0.10484258403E+03  0.37080893341E+02  0.14942850202E+03  0.80018208767E+02 0.  0.
       -6    2    1    2    0  504 -0.51818033642E+00  0.16429026699E+03 -0.10670889894E+03  0.26152310550E+03  0.17325122007E+03 0.  0.
      -24    2    5    5    0    0 -0.11062223655E+02  0.69551938806E+01 -0.23926357178E+02  0.83364352411E+02  0.78780690343E+02 0.  0.
        5    1    3    3  501    0  0.60175563816E+02 -0.59447682962E+02 -0.27345137710E+02  0.89022312071E+02  0.47000000000E+01 0. -1.
      -11    1    4    4    0    0 -0.32250979511E+01 -0.51062395301E+02 -0.17712692418E+02  0.54143410895E+02  0.00000000000E+00 0.  1.
       12    1    4    4    0    0 -0.56432285528E+02 -0.53780188727E+02  0.54793585759E+02  0.95285091120E+02  0.00000000000E+00 0. -1.
       -5    1    5    5    0  504  0.10544043319E+02  0.15733507311E+03 -0.82782541765E+02  0.17815875309E+03  0.47000000000E+01 0.  1.
        1    1    6    6  502    0  0.26392699393E+02  0.25646690138E+02 -0.18389290531E+02  0.41139923463E+02  0.00000000000E+00 0. -1.
       -2    1    6    6    0  502 -0.37454923049E+02 -0.18691496257E+02 -0.55370666469E+01  0.42224428948E+02  0.00000000000E+00 0.  1.
</event>
<event>
12   0  0.1544783E-01  0.2057528E+03  0.7957747E-01  0.1151379E+00
       21   -1    0    0  501  503  0.00000000000E+00  0.00000000000E+00  0.52917072917E+03  0.52917072917E+03  0.00000000000E+00 0. -1.
       21   -1    0    0  503  504  0.00000000000E+00  0.00000000000E+00 -0.10995353125E+03  0.10995353125E+03  0.00000000000E+00 0.  1.
        6    2    1    2  501    0 -0.76396482162E+02  0.78603477038E+02  0.37729920773E+03  0.42914486780E+03  0.17261429928E+03 0.  0.
       24    2    3    3    0    0 -0.11188979591E+03  0.83905776383E+02  0.25654213451E+03  0.30308039846E+03  0.80525495403E+02 0.  0.
       -6    2    1    2    0  504  0.76396482162E+02 -0.78603477038E+02  0.41917990183E+02  0.20997939261E+03  0.17412437604E+03 0.  0.
      -24    2    5    5    0    0  0.34113080290E+02  0.13447433476E+02 -0.17190512490E+02  0.92603239633E+02  0.83278511975E+02 0.  0.
        5    1    3    3  501    0  0.35493313743E+02 -0.53022993450E+01  0.12075707322E+03  0.12606446935E+03  0.47000000000E+01 0. -1.
        2    1    4    4  502    0 -0.23527826101E+02  0.66691778766E+02  0.12635163582E+03  0.14479671209E+03  0.00000000000E+00 0. -1.
       -1    1    4    4    0  502 -0.88361969804E+02  0.17213997618E+02  0.13019049869E+03  0.15828368637E+03  0.00000000000E+00 0.  1.
       -5    1    5    5    0  504  0.42283401872E+02 -0.92050910514E+02  0.59108502673E+02  0.11737615298E+03  0.47000000000E+01 0.  1.
       13    1    6    6    0    0  0.58497287492E+02  0.40785961666E+01  0.42722667530E+01  0.58794726412E+02  0.00000000000E+00 0. -1.
      -14    1    6    6    0    0 -0.24384207202E+02  0.93688373093E+01 -0.21462779243E+02  0.33808513221E+02  0.00000000000E+00 0.  1.
</event>
<event>
12   0  0.1544783E-01  0.1840823E+03  0.7957747E-01  0.1169667E+00
       21   -1    0    0  504  503  0.00000000000E+00  0.00000000000E+00  0.82062768699E+03  0.82062768699E+03  0.00000000000E+00 0. -1.
       21   -1    0    0  501  504  0.00000000000E+00  0.00000000000E+00 -0.43652282111E+02  0.43652282111E+02  0.00000000000E+00 0. -1.
        6    2    1    2  501    0  0.12464013638E+02 -0.55398496310E+02  0.49511371200E+03  0.52763132090E+03  0.17329996526E+03 0.  0.
       24    2    3    3    0    0  0.27028660883E+02  0.33859855340E+02  0.23656837047E+03  0.25368430793E+03  0.80709949022E+02 0.  0.
       -6    2    1    2    0  503 -0.12464013638E+02  0.55398496310E+02  0.28186169288E+03  0.33664864820E+03  0.17510554929E+03 0.  0.
      -24    2    5    5    0    0 -0.57424917770E+02  0.12893767046E+02  0.93881651873E+02  0.13869228753E+03  0.83414121429E+02 0.  0.
        5    1    3    3  501    0 -0.14564647245E+02 -0.89258351650E+02  0.25854534153E+03  0.27394701298E+03  0.47000000000E+01 0. -1.
        2    1    4    4  502    0  0.39896101472E+02 -0.11040635146E+02  0.77019546882E+02  0.87439151065E+02  0.00000000000E+00 0. -1.
       -1    1    4    4    0  502 -0.12867440589E+02  0.44900490487E+02  0.15954882358E+03  0.16624515686E+03  0.00000000000E+00 0.  1.
       -5    1    5    5    0  503  0.44960904132E+02  0.42504729264E+02  0.18798004101E+03  0.19795636066E+03  0.47000000000E+01 0.  1.
       13    1    6    6    0    0 -0.49813323657E+02  0.35732299599E+02  0.25857543093E+02  0.66534028761E+02  0.00000000000E+00 0. -1.
      -14    1    6    6    0    0 -0.76115941136E+01 -0.22838532553E+02  0.68024108779E+02  0.72158258774E+02  0.00000000000E+00 0.  1.
</event>
<event>
12   0  0.1544783E-01  0.2299225E+03  0.7957747E-01  0.1133689E+00
       21   -1    0    0  504  503  0.00000000000E+00  0.00000000000E+00  0.11754723390E+03  0.11754723390E+03  0.00000000000E+00 0. -1.
       21   -1    0    0  501  504  0.00000000000E+00  0.00000000000E+00 -0.45359752929E+03  0.45359752929E+03  0.00000000000E+00 0. -1.
        6    2    1    2  501    0  0.78202918920E+02  0.12995562986E+03 -0.19549846578E+03  0.30166534006E+03  0.17256351009E+03 0.  0.
       24    2    3    3    0    0 -0.18629705840E+02  0.80762567402E+02 -0.13282579408E+03  0.17618040714E+03  0.80791002314E+02 0.  0.
       -6    2    1    2    0  503 -0.78202918920E+02 -0.12995562986E+03 -0.14055182962E+03  0.26947942313E+03  0.17280098502E+03 0.  0.
      -24    2    5    5    0    0 -0.10356351810E+03 -0.47507456774E+02 -0.10930286819E+03  0.17761295033E+03  0.81344221673E+02 0.  0.
        5    1    3    3  501    0  0.96832624761E+02  0.49193062454E+02 -0.62672671699E+02  0.12548493292E+03  0.47000000000E+01 0. -1.
      -13    1    4    4    0    0 -0.19533912307E+02 -0.11848502549E+02 -0.21567756497E+02  0.31418606955E+02  0.00000000000E+00 0.  1.
       14    1    4    4    0    0  0.90420646702E+00  0.92611069950E+02 -0.11125803758E+03  0.14476180019E+03  0.00000000000E+00 0. -1.
       -5    1    5    5    0  503  0.25360599175E+02 -0.82448173081E+02 -0.31248961426E+02  0.91866472802E+02  0.47000000000E+01 0.  1.
        1    1    6    6  502    0 -0.67666105951E+02 -0.28334999426E+02 -0.11511560975E+03  0.13650339811E+03  0.00000000000E+00 0. -1.
       -2    1    6    6    0  502 -0.35897412145E+02 -0.19172457348E+02  0.58127415556E+01  0.41109552222E+02  0.00000000000E+00 0.  1.
</event>
<event>
12   0  0.1544783E-01  0.1743778E+03  0.7957747E-01  0.1178779E+00
       21   -1    0    0  504  503  0.00000000000E+00  0.00000000000E+00  0.17098739454E+03  0.17098739454E+03  0.00000000000E+00 0. -1.
       21   -1    0    0  501  504  0.00000000000E+00  0.00000000000E+00 -0.20851291557E+03  0.20851291557E+03  0.00000000000E+00 0. -1.
        6    2    1    2  501    0 -0.85466569138E+01  0.12961570814E+02 -0.92058127635E+02  0.19679446514E+03  0.17324062740E+03 0.  0.
       24    2    3    3    0    0 -0.25539953625E+02  0.55056111433E+02 -0.55095465277E+01  0.98950357624E+02  0.77957382804E+02 0.  0.
       -6    2    1    2    0  503  0.85466569138E+01 -0.12961570814E+02  0.54532606607E+02  0.18270584498E+03  0.17368526979E+03 0.  0.
      -24    2    5    5    0    0  0.14396872746E+02  0.60098749240E+02  0.27214518738E+02  0.10434511938E+03  0.79549634207E+02 0.  0.
        5    1    3    3  501    0  0.16993296712E+02 -0.42094540619E+02 -0.86548581107E+02  0.97844107512E+02  0.47000000000E+01 0. -1.
        4    1    4    4  502    0  0.27979745938E+02  0.20903576893E+02 -0.61258064169E+01  0.35459148523E+02  0.00000000000E+00 0. -1.
       -3    1    4    4    0  502 -0.53519699564E+02  0.34152534540E+02  0.61625988921E+00  0.63491209101E+02  0.00000000000E+00 0.  1.
       -5    1    5    5    0  503 -0.58502158319E+01 -0.73060320053E+02  0.27318087870E+02  0.78360725599E+02  0.47000000000E+01 0.  1.
       11    1    6    6    0    0  0.27781596220E+02  0.67246948848E+02  0.41280682661E+02  0.83654431914E+02  0.00000000000E+00 0. -1.
      -12    1    6    6    0    0 -0.13384723474E+02 -0.71481996087E+01 -0.14066163924E+02  0.20690687462E+02  0.00000000000E+00 0.  1.
</event>
<event>
12   0  0.1544783E-01  0.2082743E+03  0.7957747E-01  0.1149412E+00
       -2   -1    0    0    0  501  0.00000000000E+00  0.00000000000E+00  0.53439094253E+02  0.53439094253E+02  0.00000000000E+00 0.  1.
        2   -1    0    0  502    0  0.00000000000E+00  0.00000000000E+00 -0.82176746043E+03  0.82176746043E+03  0.00000000000E+00 0. -1.
        6    2    1    2  502    0 -0.45632258841E+02 -0.10270540170E+03 -0.33252048672E+03  0.39136589361E+03  0.17310888483E+03 0.  0.
       24    2    3    3    0    0 -0.33230379862E+02 -0.70097781742E+02 -0.76462513391E+02  0.13289957243E+03  0.76143438628E+02 0.  0.
       -6    2    1    2    0  501  0.45632258841E+02  0.10270540170E+03 -0.43580787945E+03  0.48384066107E+03  0.17760229426E+03 0.  0.
      -24    2    5    5    0    0 -0.41426311282E+02  0.73236035265E+02 -0.25923923826E+03  0.28472709236E+03  0.82370372977E+02 0.  0.
        5    1    3    3  502    0 -0.12401878979E+02 -0.32607619956E+02 -0.25605797333E+03  0.25846632118E+03  0.47000000000E+01 0. -1.
      -11    1    4    4    0    0 -0.54168832007E+02 -0.45034849231E+02 -0.31100166894E+02  0.77004028382E+02  0.00000000000E+00 0.  1.
       12    1    4    4    0    0  0.20938452145E+02 -0.25062932511E+02 -0.45362346496E+02  0.55895544044E+02  0.00000000000E+00 0. -1.
       -5    1    5    5    0  501  0.87058570122E+02  0.29469366433E+02 -0.17656864120E+03  0.19911356871E+03  0.47000000000E+01 0.  1.
        1    1    6    6  503    0  0.59646873037E+01  0.66879110341E+02 -0.18077089177E+03  0.19283803620E+03  0.00000000000E+00 0. -1.
       -2    1    6    6    0  503 -0.47390998586E+02  0.63569249231E+01 -0.78468346487E+02  0.91889056159E+02  0.00000000000E+00 0.  1.
</event>
<event>
12   0  0.1544783E-01  0.2648599E+03  0.7957747E-01  0.1111931E+00
       21   -1    0    0  504  503  0.00000000000E+00  0.00000000000E+00  0.12333284324E+03  0.12333284324E+03  0.00000000000E+00 0.  1.
       21   -1    0    0  501  504  0.00000000000E+00  0.00000000000E+00 -0.56859983140E+03  0.56859983140E+03  0.00000000000E+00 0. -1.
        6    2    1    2  501    0  0.19564390155E+03  0.38262514419E+02 -0.25142274490E+03  0.36519056959E+03  0.17438520362E+03 0.  0.
       24    2    3    3    0    0  0.10783230936E+03 -0.28985013304E+02 -0.72100081992E+02  0.15444946506E+03  0.78665605540E+02 0.  0.
       -6    2    1    2    0  503 -0.19564390155E+03 -0.38262514419E+02 -0.19384424326E+03  0.32674210506E+03  0.17159328760E+03 0.  0.
      -24    2    5    5    0    0 -0.93402412787E+02  0.27658714608E+02 -0.15242912046E+03  0.19814882041E+03  0.80865957339E+02 0.  0.
        5    1    3    3  501    0  0.87811592186E+02  0.67247527724E+02 -0.17932266290E+03  0.21074110453E+03  0.47000000000E+01 0. -1.
      -11    1    4    4    0    0  0.13117477302E+02 -0.10998125975E+02  0.16307972153E+02  0.23642693194E+02  0.00000000000E+00 0.  1.
       12    1    4    4    0    0  0.94714832059E+02 -0.17986887329E+02 -0.88408054145E+02  0.13080677186E+03  0.00000000000E+00 0. -1.
       -5    1    5    5    0  503 -0.10224148876E+03 -0.65921229028E+02 -0.41415122803E+02  0.12859328465E+03  0.47000000000E+01 0.  1.
        1    1    6    6  502    0 -0.15350929563E+02 -0.22128575256E+02 -0.66865789821E+02  0.72085773421E+02  0.00000000000E+00 0. -1.
       -2    1    6    6    0  502 -0.78051483224E+02  0.49787289864E+02 -0.85563330639E+02  0.12606304699E+03  0.00000000000E+00 0.  1.
</event>
<event>
12   0  0.1544783E-01  0.1880840E+03  0.7957747E-01  0.1166088E+00
       21   -1    0    0  504  503  0.00000000000E+00  0.00000000000E+00  0.30055867345E+03  0.30055867345E+03  0.00000000000E+00 0.  1.
       21   -1    0    0  501  504  0.00000000000E+00  0.00000000000E+00 -0.23970735588E+03  0.23970735588E+03  0.00000000000E+00 0.  1.
        6    2    1    2  501    0 -0.49907123392E+02 -0.40115709657E+02 -0.16409502213E+03  0.24960519627E+03  0.17684905029E+03 0.  0.
       24    2    3    3    0    0 -0.15913923410E+01  0.23298736079E+01 -0.16659694290E+03  0.18507313437E+03  0.80557822955E+02 0.  0.
       -6    2    1    2    0  503  0.49907123392E+02  0.40115709657E+02  0.22494633971E+03  0.29066083307E+03  0.17257715087E+03 0.  0.
      -24    2    5    5    0    0  0.10064160195E+03  0.28697044883E+02  0.17190479943E+03  0.21623054209E+03  0.79070442246E+02 0.  0.
        5    1    3    3  501    0 -0.48315731051E+02 -0.42445583264E+02  0.25019207659E+01  0.64532061901E+02  0.47000000000E+01 0. -1.
        4    1    4    4  502    0 -0.92859526111E+01  0.32314468125E+02 -0.30156067542E+02  0.45164611984E+02  0.00000000000E+00 0. -1.
       -3    1    4    4    0  502  0.76945602700E+01 -0.29984594517E+02 -0.13644087536E+03  0.13990852238E+03  0.00000000000E+00 0.  1.
       -5    1    5    5    0  503 -0.50734478556E+02  0.11418664773E+02  0.53041540284E+02  0.74430290979E+02  0.47000000000E+01 0.  1.
       13    1    6    6    0    0  0.26397109383E+02  0.45955804202E+02  0.52706567879E+02  0.74744401939E+02  0.00000000000E+00 0. -1.
      -14    1    6    6    0    0  0.74244492565E+02 -0.17258759319E+02  0.11919823155E+03  0.14148614015E+03  0.00000000000E+00 0.  1.
</event>
<event>
12   0  0.1544783E-01  0.1779317E+03  0.7957747E-01  0.1175368E+00
       -2   -1    0    0    0  501  0.00000000000E+00  0.00000000000E+00  0.24359609826E+03  0.24359609826E+03  0.00000000000E+00 0.  1.
        2   -1    0    0  502    0  0.00000000000E+00  0.00000000000E+00 -0.13182660533E+03  0.13182660533E+03  0.00000000000E+00 0. -1.
        6    2    1    2  502    0  0.48996141209E+02 -0.13877300295E+02  0.76973141372E+02  0.19105213229E+03  0.16728075635E+03 0.  0.
       24    2    3    3    0    0  0.18324927071E+02 -0.71260329624E+02  0.70952682155E+02  0.12553975666E+03  0.72884222350E+02 0.  0.
       -6    2    1    2    0  501 -0.48996141209E+02  0.13877300295E+02  0.34796351554E+02  0.18437057129E+03  0.17374843930E+03 0.  0.
      -24    2    5    5    0    0 -0.35876800825E+02 -0.17900283525E+02 -0.43367681915E+02  0.98850760407E+02  0.79266335923E+02 0.  0.
        5    1    3    3  502    0  0.30671214138E+02  0.57383029329E+02  0.60204592171E+01  0.65512375632E+02  0.47000000000E+01 0. -1.
      -13    1    4    4    0    0  0.16705747071E+02  0.10722060268E+02  0.54348918047E+01  0.20581122674E+02  0.00000000000E+00 0.  1.
       14    1    4    4    0    0  0.16191799999E+01 -0.81982389892E+02  0.65517790350E+02  0.10495863399E+03  0.00000000000E+00 0. -1.
       -5    1    5    5    0  501 -0.13119340384E+02  0.31777583820E+02  0.78164033469E+02  0.85519810884E+02  0.47000000000E+01 0.  1.
        1    1    6    6  503    0 -0.16805290887E+02  0.31587368758E+02 -0.16589045578E+02  0.39438256808E+02  0.00000000000E+00 0. -1.
       -2    1    6    6    0  503 -0.19071509937E+02 -0.49487652283E+02 -0.26778636337E+02  0.59412503599E+02  0.00000000000E+00 0.  1.
</event>
<event>
12   0  0.1544783E-01  0.2253450E+03  0.7957747E-01  0.1136852E+00
       21   -1    0    0  504  503  0.00000000000E+00  0.00000000000E+00  0.11281568425E+03  0.11281568425E+03  0.00000000000E+00 0.  1.
       21   -1    0    0  501  504  0.00000000000E+00  0.00000000000E+00 -0.45303361846E+03  0.45303361846E+03  0.00000000000E+00 0. -1.
        6    2    1    2  501    0  0.91569904990E+02  0.10978551302E+03 -0.20954201345E+03  0.30771449610E+03  0.17419084173E+03 0.  0.
       24    2    3    3    0    0  0.35897815121E+02  0.13709171382E+03 -0.13479942367E+03  0.21048510281E+03  0.77783692108E+02 0.  0.
       -6    2    1    2    0  503 -0.91569904990E+02 -0.10978551302E+03 -0.13067592076E+03  0.25813480661E+03  0.17064429597E+03 0.  0.
      -24    2    5    5    0    0 -0.11815538504E+03 -0.11986211857E+03 -0.13272496158E+03  0.22924511472E+03  0.81300582493E+02 0.  0.
        5    1    3    3  501    0  0.55672089868E+02 -0.27306200794E+02 -0.74742589782E+02  0.97229393290E+02  0.47000000000E+01 0. -1.
      -13    1    4    4    0    0 -0.23523283604E+02  0.58440245098E+02 -0.55922754886E+02  0.84237531022E+02  0.00000000000E+00 0.  1.
       14    1    4    4    0    0  0.59421098726E+02  0.78651468719E+02 -0.78876668780E+02  0.12624757179E+03  0.00000000000E+00 0. -1.
       -5    1    5    5    0  503  0.26585480054E+02  0.10076605548E+02  0.20490408215E+01  0.28889691888E+02  0.47000000000E+01 0.  1.
        3    1    6    6  502    0 -0.57211647703E+02 -0.35516146504E+02 -0.99241951826E+02  0.11993137328E+03  0.00000000000E+00 0. -1.
       -4    1    6    6    0  502 -0.60943737341E+02 -0.84345972067E+02 -0.33483009756E+02  0.10931374144E+03  0.00000000000E+00 0.  1.
</event>
<event>
12   0  0.1544783E-01  0.2861293E+03  0.7957747E-01  0.1100398E+00
       -2   -1    0    0    0  501  0.00000000000E+00  0.00000000000E+00  0.22699529233E+03  0.22699529233E+03  0.00000000000E+00 0.  1.
        2   -1    0    0  502    0  0.00000000000E+00  0.00000000000E+00 -0.43291850962E+03  0.43291850962E+03  0.00000000000E+00 0. -1.
        6    2    1    2  502    0 -0.12300291054E+03 -0.19192036782E+03  0.31717932678E+02  0.28826327670E+03  0.17357000274E+03 0.  0.
       24    2    3    3    0    0 -0.69981356288E+02 -0.88861646727E+02 -0.51269052928E+02  0.14564029471E+03  0.76084145320E+02 0.  0.
       -6    2    1    2    0  501  0.12300291054E+03  0.19192036782E+03 -0.23764114997E+03  0.37165052526E+03  0.17230105390E+03 0.  0.
      -24    2    5    5    0    0  0.59536603814E+02  0.19753859667E+03 -0.19535233238E+03  0.29503479137E+03  0.79478865028E+02 0.  0.
        5    1    3    3  502    0 -0.53021554256E+02 -0.10305872110E+03  0.82986985606E+02  0.14262298198E+03  0.47000000000E+01 0. -1.
      -13    1    4    4    0    0 -0.39352836679E+01  0.13458331653E+02 -0.15858383286E+01  0.14111273211E+02  0.00000000000E+00 0.  1.
       14    1    4    4    0    0 -0.66046072620E+02 -0.10231997838E+03 -0.49683214599E+02  0.13152902150E+03  0.00000000000E+00 0. -1.
       -5    1    5    5    0  501  0.63466306729E+02 -0.56182288441E+01 -0.42288817589E+02  0.76615733882E+02  0.47000000000E+01 0.  1.
        3    1    6    6  503    0  0.53734090008E+02  0.70150531386E+02 -0.11211653376E+03  0.14275351703E+03  0.00000000000E+00 0. -1.
       -4    1    6    6    0  503  0.58025138064E+01  0.12738806528E+03 -0.83235798626E+02  0.15228127434E+03  0.00000000000E+00 0.  1.
</event>
<event>
12   0  0.1544783E-01  0.1732956E+03  0.7957747E-01  0.1179835E+00
       21   -1    0    0  504  503  0.00000000000E+00  0.00000000000E+00  0.25462652677E+03  0.25462652677E+03  0.00000000000E+00 0. -1.
       21   -1    0    0  501  504  0.00000000000E+00  0.00000000000E+00 -0.19541811738E+03  0.19541811738E+03  0.00000000000E+00 0. -1.
        6    2    1    2  501    0 -0.82476936021E+01 -0.61177180774E+00 -0.11292010572E+03  0.20683882958E+03  0.17309810060E+03 0.  0.
       24    2    3    3    0    0  0.46251229235E+02  0.19446479711E+01 -0.12111393204E+03  0.15146828992E+03  0.78301343900E+02 0.  0.
       -6    2    1    2    0  503  0.82476936021E+01  0.61177180774E+00  0.17212851510E+03  0.24320581456E+03  0.17161714312E+03 0.  0.
      -24    2    5    5    0    0  0.31232783993E+02  0.29118768535E+02  0.31690857582E+02  0.97996348990E+02  0.82313938578E+02 0.  0.
        5    1    3    3  501    0 -0.54498922837E+02 -0.25564197789E+01  0.81938263195E+01  0.55370539660E+02  0.47000000000E+01 0. -1.
      -11    1    4    4    0    0  0.31676153796E+02 -0.36986736624E+02 -0.55952528358E+02  0.74176026013E+02  0.00000000000E+00 0.  1.
       12    1    4    4    0    0  0.14575075439E+02  0.38931384595E+02 -0.65161403680E+02  0.77292263908E+02  0.00000000000E+00 0. -1.
       -5    1    5    5    0  503 -0.22985090391E+02 -0.28506996727E+02  0.14043765752E+03  0.14520946557E+03  0.47000000000E+01 0.  1.
        1    1    6    6  502    0  0.20294355509E+01 -0.24910813699E+02  0.26396593375E+02  0.36351717836E+02  0.00000000000E+00 0. -1.
       -2    1    6    6    0  502  0.29203348442E+02  0.54029582234E+02  0.52942642071E+01  0.61644631154E+02  0.00000000000E+00 0.  1.
</event>
<event>
12   0  0.1544783E-01  0.1790646E+03  0.7957747E-01  0.1174299E+00
       21   -1    0    0  504  503  0.00000000000E+00  0.00000000000E+00  0.11054749896E+04  0.11054749896E+04  0.00000000000E+00 0. -1.
       21   -1    0    0  501  504  0.00000000000E+00  0.00000000000E+00 -0.45753755431E+02  0.45753755431E+02  0.00000000000E+00 0. -1.
        6    2    1    2  501    0 -0.36196418774E+02  0.27881411212E+02  0.18131970223E+03  0.25483516988E+03  0.17313744705E+03 0.  0.
       24    2    3    3    0    0  0.46479812971E+02  0.74992074478E+00  0.10320723239E+03  0.13780899753E+03  0.78604399295E+02 0.  0.
       -6    2    1    2    0  503  0.36196418774E+02 -0.27881411212E+02  0.87840153191E+03  0.89639357512E+03  0.17275600257E+03 0.  0.
      -24    2    5    5    0    0  0.68206714738E+02 -0.67676607617E+02  0.55110628870E+03  0.56510430132E+03  0.79952803402E+02 0.  0.
        5    1    3    3  501    0 -0.82676231745E+02  0.27131490467E+02  0.78112469834E+02  0.11702617235E+03  0.47000000000E+01 0. -1.
      -11    1    4    4    0    0 -0.13728023624E+02  0.18681887099E+02  0.51379991944E+02  0.56368210105E+02  0.00000000000E+00 0.  1.
       12    1    4    4    0    0  0.60207836595E+02 -0.17931966354E+02  0.51827240447E+02  0.81440787430E+02  0.00000000000E+00 0. -1.
       -5    1    5    5    0  503 -0.32010295964E+02  0.39795196405E+02  0.32729524322E+03  0.33128927380E+03  0.47000000000E+01 0.  1.
        3    1    6    6  502    0  0.18839454117E+02 -0.38209881385E+02  0.81229267634E+02  0.91723028663E+02  0.00000000000E+00 0. -1.
       -4    1    6    6    0  502  0.49367260621E+02 -0.29466726232E+02  0.46987702106E+03  0.47338127265E+03  0.00000000000E+00 0.  1.
</event>
<event>
12   0  0.1544783E-01  0.1749658E+03  0.7957747E-01  0.1178208E+00
       21   -1    0    0  501  503  0.00000000000E+00  0.00000000000E+00  0.35922229493E+03  0.35922229493E+03  0.00000000000E+00 0. -1.
       21   -1    0    0  503  504  0.00000000000E+00  0.00000000000E+00 -0.12786130603E+03  0.12786130603E+03  0.00000000000E+00 0. -1.
        6    2    1    2  501    0  0.91156737583E+01  0.21232924051E+02  0.25765511386E+03  0.31144693696E+03  0.17343328478E+03 0.  0.
       24    2    3    3    0    0  0.60456032283E+02  0.40396195570E+02  0.11134335730E+03  0.15513864064E+03  0.79899124832E+02 0.  0.
       -6    2    1    2    0  504 -0.91156737583E+01 -0.21232924051E+02 -0.26294124966E+02  0.17563666399E+03  0.17211311443E+03 0.  0.
      -24    2    5    5    0    0  0.58773994145E+02 -0.54347872460E+01  0.33336896774E+01  0.99751978219E+02  0.80345655587E+02 0.  0.
        5    1    3    3  501    0 -0.51340358525E+02 -0.19163271518E+02  0.14631175657E+03  0.15630829632E+03  0.47000000000E+01 0. -1.
        4    1    4    4  502    0  0.44944762441E+02  0.64756202001E+02  0.75989283794E+02  0.10948866891E+03  0.00000000000E+00 0. -1.
       -3    1    4    4    0  502  0.15511269842E+02 -0.24360006431E+02  0.35354073502E+02  0.45649971727E+02  0.00000000000E+00 0.  1.
       -5    1    5    5    0  504 -0.67889667903E+02 -0.15798136805E+02 -0.29627814643E+02  0.75884685774E+02  0.47000000000E+01 0.  1.
       13    1    6    6    0    0 -0.18506336007E+02  0.94268699463E+01  0.34617908791E+01  0.21055506298E+02  0.00000000000E+00 0. -1.
      -14    1    6    6    0    0  0.77280330152E+02 -0.14861657192E+02 -0.12810120162E+00  0.78696471921E+02  0.00000000000E+00 0.  1.
</event>
<event>
12   0  0.1544783E-01  0.2129008E+03  0.7957747E-01  0.1145881E+00
       21   -1    0    0  504  503  0.00000000000E+00  0.00000000000E+00  0.10033557262E+04  0.10033557262E+04  0.00000000000E+00 0.  1.
       21   -1    0    0  501  504  0.00000000000E+00  0.00000000000E+00 -0.54032378338E+02  0.54032378338E+02  0.00000000000E+00 0. -1.
        6    2    1    2  501    0  0.10729205334E+03 -0.59753685952E+02  0.25795027734E+03  0.33397710214E+03  0.17297477122E+03 0.  0.
       24    2    3    3    0    0  0.66436617726E+02 -0.77373588174E+02  0.25829613281E+03  0.28923520690E+03  0.80867894535E+02 0.  0.
       -6    2    1    2    0  503 -0.10729205334E+03  0.59753685952E+02  0.69137307051E+03  0.72341100239E+03  0.17390994237E+03 0.  0.
      -24    2    5    5    0    0 -0.83588926503E+02 -0.27053536291E+02  0.34226334270E+03  0.36286000168E+03  0.82487469402E+02 0.  0.
        5    1    3    3  501    0  0.40855435616E+02  0.17619902222E+02 -0.34585546257E+00  0.44741895241E+02  0.47000000000E+01 0. -1.
        4    1    4    4  502    0  0.57823694324E+01 -0.66380798050E+02  0.15849897022E+03  0.17193536491E+03  0.00000000000E+00 0. -1.
       -3    1    4    4    0  502  0.60654248294E+02 -0.10992790123E+02  0.99797162591E+02  0.11729984200E+03  0.00000000000E+00 0.  1.
       -5    1    5    5    0  503 -0.23703126839E+02  0.86807222243E+02  0.34910972781E+03  0.36055100070E+03  0.47000000000E+01 0.  1.
       11    1    6    6    0    0 -0.94997917159E+02 -0.46374989268E+01  0.27975683597E+03  0.29548265251E+03  0.00000000000E+00 0. -1.
      -12    1    6    6    0    0  0.11408990655E+02 -0.22416037365E+02  0.62506506725E+02  0.67377349175E+02  0.00000000000E+00 0.  1.
</event>
<event>
12   0  0.1544783E-01  0.1813542E+03  0.7957747E-01  0.1172165E+00
        2   -1    0    0  502    0  0.00000000000E+00  0.00000000000E+00  0.79371050008E+03  0.79371050008E+03  0.00000000000E+00 0. -1.
       -2   -1    0    0    0  501  0.00000000000E+00  0.00000000000E+00 -0.78225555169E+02  0.78225555169E+02  0.00000000000E+00 0.  1.
        6    2    1    2  502    0 -0.21424842311E+02  0.48002381155E+02  0.59919896008E+02  0.19203860197E+03  0.17471456220E+03 0.  0.
       24    2    3    3    0    0 -0.40287184711E+02  0.25314769010E+01 -0.25307405136E+02  0.93503461258E+02  0.80454750546E+02 0.  0.
       -6    2    1    2    0  501  0.21424842311E+02 -0.48002381155E+02  0.65556504891E+03  0.67989745328E+03  0.17242900327E+03 0.  0.
      -24    2    5    5    0    0  0.88782134861E+01 -0.65420855840E+02  0.21498200098E+03  0.23876670932E+03  0.80209536078E+02 0.  0.
        5    1    3    3  502    0  0.18862342400E+02  0.45470904254E+02  0.85227301144E+02  0.98535140710E+02  0.47000000000E+01 0. -1.
        2    1    4    4  503    0  0.11211066439E+02 -0.22185706181E+02 -0.26545916229E+02  0.36367282521E+02  0.00000000000E+00 0. -1.
       -1    1    4    4    0  503 -0.51498251150E+02  0.24717183082E+02  0.12385110933E+01  0.57136178738E+02  0.00000000000E+00 0.  1.
       -5    1    5    5    0  501  0.12546628825E+02  0.17418474685E+02  0.44058304792E+03  0.44113074397E+03  0.47000000000E+01 0.  1.
       13    1    6    6    0    0 -0.30897172259E+02 -0.22794715793E+02  0.13114829622E+03  0.13665324703E+03  0.00000000000E+00 0. -1.
      -14    1    6    6    0    0  0.39775385745E+02 -0.42626140047E+02  0.83833704763E+02  0.10211346229E+03  0.00000000000E+00 0.  1.
</event>
<event>
12   0  0.1544783E-01  0.1789409E+03  0.7957747E-01  0.1174415E+00
       21   -1    0    0  504  503  0.00000000000E+00  0.00000000000E+00  0.86734148683E+02  0.86734148683E+02  0.00000000000E+00 0. -1.
       21   -1    0    0  501  504  0.00000000000E+00  0.00000000000E+00 -0.59542371645E+03  0.59542371645E+03  0.00000000000E+00 0. -1.
        6    2    1    2  501    0  0.25943609868E+02  0.32383016320E+02 -0.46628115253E+03  0.49826029161E+03  0.17065601177E+03 0.  0.
       24    2    3    3    0    0 -0.29459859492E+02 -0.31770880853E+02 -0.21150674951E+03  0.22971354824E+03  0.78459779290E+02 0.  0.
       -6    2    1    2    0  503 -0.25943609868E+02 -0.32383016320E+02 -0.42408415234E+02  0.18389757352E+03  0.17406353215E+03 0.  0.
      -24    2    5    5    0    0  0.17887554767E+02 -0.44519401915E+02 -0.80803185663E+02  0.12419237069E+03  0.81195125238E+02 0.  0.
        5    1    3    3  501    0  0.55403469360E+02  0.64153897172E+02 -0.25477440303E+03  0.26854674338E+03  0.47000000000E+01 0. -1.
        2    1    4    4  502    0  0.25948408741E+02 -0.19951209091E+02 -0.69482957653E+02  0.76806588680E+02  0.00000000000E+00 0. -1.
       -1    1    4    4    0  502 -0.55408268234E+02 -0.11819671762E+02 -0.14202379185E+03  0.15290695956E+03  0.00000000000E+00 0.  1.
       -5    1    5    5    0  503 -0.43831164635E+02  0.12136385595E+02  0.38394770429E+02  0.59705202829E+02  0.47000000000E+01 0.  1.
       11    1    6    6    0    0  0.77242970995E+01 -0.52268621310E+02 -0.11960147159E+02  0.54173043660E+02  0.00000000000E+00 0. -1.
      -12    1    6    6    0    0  0.10163257667E+02  0.77492193948E+01 -0.68843038503E+02  0.70019327032E+02  0.00000000000E+00 0.  1.
</event>
<event>
12   0  0.1544783E-01  0.2169618E+03  0.7957747E-01  0.1142862E+00
       21   -1    0    0  501  503  0.00000000000E+00  0.00000000000E+00  0.25967718612E+03  0.25967718612E+03  0.00000000000E+00 0. -1.
       21   -1    0    0  503  504  0.00000000000E+00  0.00000000000E+00 -0.22963037409E+03  0.22963037409E+03  0.00000000000E+00 0. -1.
        6    2    1    2  501    0 -0.10891920680E+03  0.70223834927E+02  0.12823251964E+03  0.25202384699E+03  0.17400476934E+03 0.  0.
       24    2    3    3    0    0 -0.94670735964E+02 -0.48273085167E+01  0.12021995630E+03  0.17506941745E+03  0.84915321813E+02 0.  0.
       -6    2    1    2    0  504  0.10891920680E+03 -0.70223834927E+02 -0.98185707613E+02  0.23728371323E+03  0.17282461278E+03 0.  0.
      -24    2    5    5    0    0  0.12463226797E+03 -0.29965749503E+02 -0.25057125950E+02  0.15221025562E+03  0.78159797815E+02 0.  0.
        5    1    3    3  501    0 -0.14248470837E+02  0.75051143443E+02  0.80125633363E+01  0.76954429532E+02  0.47000000000E+01 0. -1.
        4    1    4    4  502    0 -0.89603379750E+02  0.24678552258E+02  0.69042318675E+02  0.11577840201E+03  0.00000000000E+00 0. -1.
       -3    1    4    4    0  502 -0.50673562139E+01 -0.29505860775E+02  0.51177637628E+02  0.59291015442E+02  0.00000000000E+00 0.  1.
       -5    1    5    5    0  504 -0.15713061165E+02 -0.40258085423E+02 -0.73128581663E+02  0.85073457607E+02  0.47000000000E+01 0.  1.
       11    1    6    6    0    0  0.94950635911E+02  0.11437409456E+02 -0.31883351951E+02  0.10081163488E+03  0.00000000000E+00 0. -1.
      -12    1    6    6    0    0  0.29681632054E+02 -0.41403158959E+02  0.68262260010E+01  0.51398620746E+02  0.00000000000E+00 0.  1.
</event>
<event>
12   0  0.1544783E-01  0.2089197E+03  0.7957747E-01  0.1148913E+00
       21   -1    0    0  501  503  0.00000000000E+00  0.00000000000E+00  0.47846508532E+03  0.47846508532E+03  0.00000000000E+00 0.  1.
       21   -1    0    0  503  504  0.00000000000E+00  0.00000000000E+00 -0.90407098496E+02  0.90407098496E+02  0.00000000000E+00 0. -1.
        6    2    1    2  501    0 -0.55767806545E+02  0.10005676697E+03  0.20280454986E+03  0.29116511273E+03  0.17471700708E+03 0.  0.
       24    2    3    3    0    0 -0.99131844646E+02  0.10254678021E+03  0.18446952075E+03  0.24378470266E+03  0.71126734852E+02 0.  0.
       -6    2    1    2    0  504  0.55767806545E+02 -0.10005676697E+03  0.18525343697E+03  0.27770707109E+03  0.17228167796E+03 0.  0.
      -24    2    5    5    0    0  0.18511804723E+02 -0.21360500385E+02  0.16741338437E+03  0.18870443335E+03  0.82359966065E+02 0.  0.
        5    1    3    3  501    0  0.43364038101E+02 -0.24900132320E+01  0.18335029109E+02  0.47380410073E+02  0.47000000000E+01 0. -1.
      -11    1    4    4    0    0 -0.13962797299E+02 -0.10339476260E+02  0.27327604411E+02  0.32383057926E+02  0.00000000000E+00 0.  1.
       12    1    4    4    0    0 -0.85169047347E+02  0.11288625647E+03  0.15714191634E+03  0.21140164473E+03  0.00000000000E+00 0. -1.
       -5    1    5    5    0  504  0.37256001823E+02 -0.78696266588E+02  0.17840052596E+02  0.89002637733E+02  0.47000000000E+01 0.  1.
        1    1    6    6  502    0 -0.22484151559E+02  0.88007280635E+01  0.10709204054E+03  0.10978021239E+03  0.00000000000E+00 0. -1.
       -2    1    6    6    0  502  0.40995956282E+02 -0.30161228448E+02  0.60321343830E+02  0.78924220961E+02  0.00000000000E+00 0.  1.
</event>
<event>
12   0  0.1544783E-01  0.1822493E+03  0.7957747E-01  0.1171340E+00
       21   -1    0    0  501  503  0.00000000000E+00  0.00000000000E+00  0.22729073500E+03  0.22729073500E+03  0.00000000000E+00 0. -1.
       21   -1    0    0  503  504  0.00000000000E+00  0.00000000000E+00 -0.14645451970E+03  0.14645451970E+03  0.00000000000E+00 0.  1.
        6    2    1    2  501    0 -0.43651519823E+02  0.34747623605E+02  0.51401663785E+02  0.18935924771E+03  0.17349910987E+03 0.  0.
       24    2    3    3    0    0 -0.59808536016E+02  0.62360500319E+02 -0.12182767819E+02  0.11802489361E+03  0.79470514657E+02 0.  0.
       -6    2    1    2    0  504  0.43651519823E+02 -0.34747623605E+02  0.29434551510E+02  0.18438600699E+03  0.17325978824E+03 0.  0.
      -24    2    5    5    0    0 -0.13947715268E+02  0.18958111573E+02  0.56264763361E+02  0.10105577153E+03  0.80576650509E+02 0.  0.
        5    1    3    3  501    0  0.16157016193E+02 -0.27612876714E+02  0.63584431604E+02  0.71334354101E+02  0.47000000000E+01 0. -1.
        4    1    4    4  502    0 -0.22657666748E+02  0.35337822039E+02 -0.45021563418E+02  0.61555444126E+02  0.00000000000E+00 0. -1.
       -3    1    4    4    0  502 -0.37150869268E+02  0.27022678280E+02  0.32838795599E+02  0.56469449486E+02  0.00000000000E+00 0.  1.
       -5    1    5    5    0  504  0.57599235091E+02 -0.53705735178E+02 -0.26830211852E+02  0.83330235461E+02  0.47000000000E+01 0.  1.
       11    1    6    6    0    0  0.84963819013E+01 -0.79429035076E+01  0.64107769072E+02  0.65154311269E+02  0.00000000000E+00 0. -1.
      -12    1    6    6    0    0 -0.22444097169E+02  0.26901015080E+02 -0.78430057105E+01  0.35901460258E+02  0.00000000000E+00 0.  1.
</event>
<event>
12   0  0.1544783E-01  0.1911898E+03  0.7957747E-01  0.1163377E+00
       21   -1    0    0  504  503  0.00000000000E+00  0.00000000000E+00  0.68055261377E+03  0.68055261377E+03  0.00000000000E+00 0. -1.
       21   -1    0    0  501  504  0.00000000000E+00  0.00000000000E+00 -0.53996829054E+02  0.53996829054E+02  0.00000000000E+00 0. -1.
        6    2    1    2  501    0 -0.13883817509E+02 -0.72784404295E+02  0.36914520459E+03  0.41571830255E+03  0.17624753930E+03 0.  0.
       24    2    3    3    0    0  0.42716521372E+01 -0.91034262902E+02  0.36985884103E+03  0.38954049336E+03  0.81490794840E+02 0.  0.
       -6    2    1    2    0  503  0.13883817509E+02  0.72784404295E+02  0.25741058012E+03  0.31883114027E+03  0.17292414333E+03 0.  0.
      -24    2    5    5    0    0  0.37318292715E+02  0.87887662253E+02  0.26177275333E+03  0.29022342130E+03  0.81165040126E+02 0.  0.
        5    1    3    3  501    0 -0.18155469646E+02  0.18249858607E+02 -0.71363644182E+00  0.26177809194E+02  0.47000000000E+01 0. -1.
        2    1    4    4  502    0 -0.11619985979E+02 -0.55878635709E+02  0.86919492430E+02  0.10398290324E+03  0.00000000000E+00 0. -1.
       -1    1    4    4    0  502  0.15891638116E+02 -0.35155627193E+02  0.28293934860E+03  0.28555759011E+03  0.00000000000E+00 0.  1.
       -5    1    5    5    0  503 -0.23434475206E+02 -0.15103257958E+02 -0.43621732088E+01  0.28607718963E+02  0.47000000000E+01 0.  1.
       11    1    6    6    0    0  0.18919567814E+02  0.76161152156E+02  0.10063903539E+03  0.12761930336E+03  0.00000000000E+00 0. -1.
      -12    1    6    6    0    0  0.18398724901E+02  0.11726510096E+02  0.16113371794E+03  0.16260411795E+03  0.00000000000E+00 0.  1.
</event>
<event>
12   0  0.1544783E-01  0.1803048E+03  0.7957747E-01  0.1173139E+00
       21   -1    0    0  501  503  0.00000000000E+00  0.00000000000E+00  0.63992224047E+03  0.63992224047E+03  0.00000000000E+00 0. -1.
       21   -1    0    0  503  504  0.00000000000E+00  0.00000000000E+00 -0.57484794817E+02  0.57484794817E+02  0.00000000000E+00 0. -1.
        6    2    1    2  501    0 -0.11084828821E+02 -0.49370578326E+02  0.41741068272E+03  0.45468834334E+03  0.17305919243E+03 0.  0.
       24    2    3    3    0    0  0.39345120126E+02 -0.69924576450E+02  0.19752848722E+03  0.22811403657E+03  0.81123520308E+02 0.  0.
       -6    2    1    2    0  504  0.11084828821E+02  0.49370578326E+02  0.16502676294E+03  0.24271869195E+03  0.17064056817E+03 0.  0.
      -24    2    5    5    0    0  0.11641927289E+02  0.69381266444E+02  0.18494869707E+03  0.21408808844E+03  0.81721444299E+02 0.  0.
        5    1    3    3  501    0 -0.50429948947E+02  0.20553998124E+02  0.21988219550E+03  0.22657430677E+03  0.47000000000E+01 0. -1.
      -13    1    4    4    0    0 -0.29936086905E+01  0.16827232772E+02  0.37750410261E+02  0.41439243848E+02  0.00000000000E+00 0.  1.
       14    1    4    4    0    0  0.42338728817E+02 -0.86751809222E+02  0.15977807696E+03  0.18667479272E+03  0.00000000000E+00 0. -1.
       -5    1    5    5    0  504 -0.55709846787E+00 -0.20010688117E+02 -0.19921934139E+02  0.28630603512E+02  0.47000000000E+01 0.  1.
        1    1    6    6  502    0  0.37516428197E+02  0.19145354719E+02  0.38300175069E+02  0.56929170048E+02  0.00000000000E+00 0. -1.
       -2    1    6    6    0  502 -0.25874500909E+02  0.50235911724E+02  0.14664852200E+03  0.15715891839E+03  0.00000000000E+00 0.  1.
</event>
<event>
12   0  0.1544783E-01  0.2249129E+03  0.7957747E-01  0.1137154E+00
       21   -1    0    0  501  503  0.00000000000E+00  0.00000000000E+00  0.10586729900E+03  0.10586729900E+03  0.00000000000E+00 0.  1.
       21   -1    0    0  503  504  0.00000000000E+00  0.00000000000E+00 -0.82903853848E+03  0.82903853848E+03  0.00000000000E+00 0.  1.
        6    2    1    2  501    0  0.72705224687E+02  0.12031398307E+03 -0.55120683416E+02  0.23001056586E+03  0.17350811638E+03 0.  0.
       24    2    3    3    0    0  0.22658892315E+02  0.12148962361E+03 -0.78685216420E+02  0.17448224219E+03  0.94760411086E+02 0.  0.
       -6    2    1    2    0  504 -0.72705224687E+02 -0.12031398307E+03 -0.66805055606E+03  0.70489527162E+03  0.17556848887E+03 0.  0.
      -24    2    5    5    0    0  0.28439859347E+01 -0.36837908741E+02 -0.14624723244E+03  0.17106314750E+03  0.80679784689E+02 0.  0.
        5    1    3    3  501    0  0.50046332372E+02 -0.11756405488E+01  0.23564533004E+02  0.55528323676E+02  0.47000000000E+01 0. -1.
        2    1    4    4  502    0  0.25276302686E+02  0.10529408453E+02 -0.54345275499E+02  0.60853667834E+02  0.00000000000E+00 0. -1.
       -1    1    4    4    0  502 -0.26174103704E+01  0.11096021516E+03 -0.24339940921E+02  0.11362857435E+03  0.00000000000E+00 0.  1.
       -5    1    5    5    0  504 -0.75549210622E+02 -0.83476074324E+02 -0.52180332362E+03  0.53383212413E+03  0.47000000000E+01 0.  1.
       13    1    6    6    0    0 -0.24128851232E+02 -0.10524954861E+01 -0.75470282827E+01  0.25303494708E+02  0.00000000000E+00 0. -1.
      -14    1    6    6    0    0  0.26972837167E+02 -0.35785413255E+02 -0.13870020416E+03  0.14575965279E+03  0.00000000000E+00 0.  1.
</event>
<event>
12   0  0.1544783E-01  0.2035935E+03  0.7957747E-01  0.1153088E+00
       21   -1    0    0  501  503  0.00000000000E+00  0.00000000000E+00  0.56397464819E+02  0.56397464819E+02  0.00000000000E+00 0. -1.
       21   -1    0    0  503  504  0.00000000000E+00  0.00000000000E+00 -0.73916949076E+03  0.73916949076E+03  0.00000000000E+00 0.  1.
        6    2    1    2  501    0  0.88952619842E+02  0.55618729583E+02 -0.38363115238E+03  0.43430769262E+03  0.17448294798E+03 0.  0.
       24    2    3    3    0    0  0.76229877242E+01  0.48725680729E+02 -0.31160772285E+03  0.32535133629E+03  0.79509855893E+02 0.  0.
       -6    2    1    2    0  504 -0.88952619842E+02 -0.55618729583E+02 -0.29914087356E+03  0.36125926296E+03  0.17325409427E+03 0.  0.
      -24    2    5    5    0    0 -0.15950438747E+01 -0.56655236365E+02 -0.97490412481E+02  0.14144702745E+03  0.85384548232E+02 0.  0.
        5    1    3    3  501    0  0.81329632118E+02  0.68930488546E+01 -0.72023429539E+02  0.10895635633E+03  0.47000000000E+01 0. -1.
      -13    1    4    4    0    0 -0.29726223379E+02 -0.26019234386E+01 -0.88949834032E+02  0.93821593124E+02  0.00000000000E+00 0.  1.
       14    1    4    4    0    0  0.37349211103E+02  0.51327604167E+02 -0.22265788881E+03  0.23152974317E+03  0.00000000000E+00 0. -1.
       -5    1    5    5    0  504 -0.87357575967E+02  0.10365067816E+01 -0.20165046108E+03  0.21981223550E+03  0.47000000000E+01 0.  1.
        3    1    6    6  502    0  0.34158013043E+02 -0.29347814017E+02 -0.82563405938E+02  0.94046690759E+02  0.00000000000E+00 0. -1.
       -4    1    6    6    0  502 -0.35753056918E+02 -0.27307422348E+02 -0.14927006543E+02  0.47400336693E+02  0.00000000000E+00 0.  1.
</event>
<event>
12   0  0.1544783E-01  0.2545300E+03  0.7957747E-01  0.1117965E+00
       21   -1    0    0  501  503  0.00000000000E+00  0.00000000000E+00  0.18559075366E+03  0.18559075366E+03  0.00000000000E+00 0. -1.
       21   -1    0    0  503  504  0.00000000000E+00  0.00000000000E+00 -0.34785144403E+03  0.34785144403E+03  0.00000000000E+00 0. -1.
        6    2    1    2  501    0 -0.14888559382E+03 -0.11022623887E+03 -0.73374446408E+02  0.26383825714E+03  0.17294528835E+03 0.  0.
       24    2    3    3    0    0 -0.90295765593E+02  0.81640918925E+01 -0.37430439043E+02  0.12685979148E+03  0.80451173056E+02 0.  0.
       -6    2    1    2    0  504  0.14888559382E+03  0.11022623887E+03 -0.88886243963E+02  0.26960394056E+03  0.17455307679E+03 0.  0.
      -24    2    5    5    0    0  0.25385333011E+02  0.64649868436E+02 -0.88278139925E+02  0.13787702701E+03  0.79956387915E+02 0.  0.
        5    1    3    3  501    0 -0.58589828222E+02 -0.11839033077E+03 -0.35944007365E+02  0.13697846566E+03  0.47000000000E+01 0. -1.
      -11    1    4    4    0    0 -0.21599610855E+02  0.26837366801E+02 -0.43411962677E+02  0.55420086154E+02  0.00000000000E+00 0.  1.
       12    1    4    4    0    0 -0.68696154738E+02 -0.18673274908E+02  0.59815236335E+01  0.71439705323E+02  0.00000000000E+00 0. -1.
       -5    1    5    5    0  504  0.12350026080E+03  0.45576370438E+02 -0.60810403788E+00  0.13172691354E+03  0.47000000000E+01 0.  1.
        1    1    6    6  502    0  0.93368627876E+01  0.22942525012E+02 -0.89809196728E+02  0.93162375869E+02  0.00000000000E+00 0. -1.
       -2    1    6    6    0  502  0.16048470224E+02  0.41707343425E+02  0.15310568024E+01  0.44714651145E+02  0.00000000000E+00 0.  1.
</event>
<event>
12   0  0.1544783E-01  0.2456666E+03  0.7957747E-01  0.1123396E+00
       21   -1    0    0  504  503  0.00000000000E+00  0.00000000000E+00  0.27273494889E+03  0.27273494889E+03  0.00000000000E+00 0.  1.
       21   -1    0    0  501  504  0.00000000000E+00  0.00000000000E+00 -0.25907425003E+03  0.25907425003E+03  0.00000000000E+00 0. -1.
        6    2    1    2  501    0 -0.10576719600E+03 -0.13816416741E+03 -0.96387755783E+02  0.26262011241E+03  0.17147211747E+03 0.  0.
       24    2    3    3    0    0 -0.10810890427E+02 -0.67583636495E+01 -0.42501609032E+02  0.91710803003E+02  0.80261658256E+02 0.  0.
       -6    2    1    2    0  503  0.10576719600E+03  0.13816416741E+03  0.11004845464E+03  0.26918908651E+03  0.17342452255E+03 0.  0.
      -24    2    5    5    0    0  0.97407735370E+02  0.11504807007E+03  0.11093776350E+02  0.16711875343E+03  0.71283101355E+02 0.  0.
        5    1    3    3  501    0 -0.94956305571E+02 -0.13140580376E+03 -0.53886146751E+02  0.17090930941E+03  0.47000000000E+01 0. -1.
      -13    1    4    4    0    0 -0.45729192019E+02 -0.50080832022E+00 -0.25700053083E+02  0.52458579281E+02  0.00000000000E+00 0.  1.
       14    1    4    4    0    0  0.34918301592E+02 -0.62575553293E+01 -0.16801555949E+02  0.39252223722E+02  0.00000000000E+00 0. -1.
       -5    1    5    5    0  503  0.83594606275E+01  0.23116097346E+02  0.98954678295E+02  0.10207033308E+03  0.47000000000E+01 0.  1.
        3    1    6    6  502    0  0.77766757335E+02  0.50352856391E+02 -0.16483664799E+02  0.94099893190E+02  0.00000000000E+00 0. -1.
       -4    1    6    6    0  502  0.19640978036E+02  0.64695213675E+02  0.27577441149E+02  0.73018860242E+02  0.00000000000E+00 0.  1.
</event>
<event>
12   0  0.1544783E-01  0.1763882E+03  0.7957747E-01  0.1176838E+00
       -1   -1    0    0    0  501  0.00000000000E+00  0.00000000000E+00  0.63015559679E+02  0.63015559679E+02  0.00000000000E+00 0.  1.
        1   -1    0    0  502    0  0.00000000000E+00  0.00000000000E+00 -0.10144536364E+04  0.10144536364E+04  0.00000000000E+00 0. -1.
        6    2    1    2  502    0 -0.13045089467E+02 -0.32047445552E+02 -0.86153909176E+03  0.87938626482E+03  0.17283918247E+03 0.  0.
       24    2    3    3    0    0  0.49410599379E+02 -0.46849346294E+02 -0.40811229083E+03  0.42141490858E+03  0.79991341206E+02 0.  0.
       -6    2    1    2    0  501  0.13045089467E+02  0.32047445552E+02 -0.89898984933E+02  0.19808293123E+03  0.17308323728E+03 0.  0.
      -24    2    5    5    0    0 -0.74574527295E+01  0.91710481985E+01  0.19909919632E+02  0.83961200985E+02  0.80705369368E+02 0.  0.
        5    1    3    3  502    0 -0.62455688846E+02  0.14801900742E+02 -0.45342680093E+03  0.45797135624E+03  0.47000000000E+01 0. -1.
        4    1    4    4  503    0 -0.22174204168E+02 -0.12606045983E+02 -0.11041907531E+03  0.11332687200E+03  0.00000000000E+00 0. -1.
       -3    1    4    4    0  503  0.71584803547E+02 -0.34243300311E+02 -0.29769321552E+03  0.30808803658E+03  0.00000000000E+00 0.  1.
       -5    1    5    5    0  501  0.20502542197E+02  0.22876397354E+02 -0.10980890457E+03  0.11412173025E+03  0.47000000000E+01 0.  1.
       13    1    6    6    0    0  0.26111340815E+01  0.14472345127E+02 -0.29658068501E+02  0.33103894361E+02  0.00000000000E+00 0. -1.
      -14    1    6    6    0    0 -0.10068586811E+02 -0.53012969280E+01  0.49567988133E+02  0.50857306624E+02  0.00000000000E+00 0.  1.
</event>
<event>
12   0  0.1544783E-01  0.1974230E+03  0.7957747E-01  0.1158103E+00
       21   -1    0    0  504  503  0.00000000000E+00  0.00000000000E+00  0.13200908902E+03  0.13200908902E+03  0.00000000000E+00 0.  1.
       21   -1    0    0  501  504  0.00000000000E+00  0.00000000000E+00 -0.29931123813E+03  0.29931123813E+03  0.00000000000E+00 0.  1.
        6    2    1    2  501    0 -0.72944332328E+02  0.61027502999E+02 -0.57228082995E+02  0.20528465155E+03  0.17268903538E+03 0.  0.
       24    2    3    3    0    0 -0.44805179783E+02  0.90579388831E+02  0.62106846322E+01  0.12970890743E+03  0.81078346347E+02 0.  0.
       -6    2    1    2    0  503  0.72944332328E+02 -0.61027502999E+02 -0.11007406611E+03  0.22603567560E+03  0.17300460939E+03 0.  0.
      -24    2    5    5    0    0  0.26888076916E+02 -0.30052427684E+02  0.13558224988E+02  0.90434542283E+02  0.79802655865E+02 0.  0.
        5    1    3    3  501    0 -0.28139152545E+02 -0.29551885832E+02 -0.63438767627E+02  0.75575744126E+02  0.47000000000E+01 0. -1.
        2    1    4    4  502    0  0.22102597762E+02  0.38756325029E+02  0.64404137456E+01  0.45078337224E+02  0.00000000000E+00 0. -1.
       -1    1    4    4    0  502 -0.66907777545E+02  0.51823063801E+02 -0.22972911342E+00  0.84630570205E+02  0.00000000000E+00 0.  1.
       -5    1    5    5    0  503  0.46056255412E+02 -0.30975075316E+02 -0.12363229110E+03  0.13560113331E+03  0.47000000000E+01 0.  1.
       13    1    6    6    0    0 -0.11685326117E+02  0.12833595540E+02  0.26158729411E+02  0.31393106653E+02  0.00000000000E+00 0. -1.
      -14    1    6    6    0    0  0.38573403033E+02 -0.42886023223E+02 -0.12600504423E+02  0.59041435629E+02  0.00000000000E+00 0.  1.
</event>
<event>
12   0  0.1544783E-01  0.1797968E+03  0.7957747E-01  0.1173613E+00
       21   -1    0    0  504  503  0.00000000000E+00  0.00000000000E+00  0.46024901392E+03  0.46024901392E+03  0.00000000000E+00 0.  1.
       21   -1    0    0  501  504  0.00000000000E+00  0.00000000000E+00 -0.17624958340E+03  0.17624958340E+03  0.00000000000E+00 0.  1.
        6    2    1    2  501    0 -0.28323862946E+02  0.38812154053E+02 -0.11050125262E+03  0.20295773394E+03  0.16331775906E+03 0.  0.
       24    2    3    3    0    0  0.43984975633E+02  0.24359383947E+02 -0.50874156699E+02  0.10801074206E+03  0.80932582518E+02 0.  0.
       -6    2    1    2    0  503  0.28323862946E+02 -0.38812154053E+02  0.39450068314E+03  0.43354086337E+03  0.17325780417E+03 0.  0.
      -24    2    5    5    0    0  0.52045364124E+01 -0.10348447492E+02  0.70356932938E+02  0.10729563867E+03  0.80175298567E+02 0.  0.
        5    1    3    3  501    0 -0.72308838578E+02  0.14452770105E+02 -0.59627095917E+02  0.94946991883E+02  0.47000000000E+01 0. -1.
        2    1    4    4  502    0  0.28620356648E+02 -0.26799030061E+02 -0.92315917000E+01  0.40280703968E+02  0.00000000000E+00 0. -1.
       -1    1    4    4    0  502  0.15364618985E+02  0.51158414008E+02 -0.41642564999E+02  0.67730038093E+02  0.00000000000E+00 0.  1.
       -5    1    5    5    0  503  0.23119326533E+02 -0.28463706560E+02  0.32414375020E+03  0.32624522470E+03  0.47000000000E+01 0.  1.
       13    1    6    6    0    0  0.39249222366E+02 -0.18720328106E+02  0.25667279265E+02  0.50495161804E+02  0.00000000000E+00 0. -1.
      -14    1    6    6    0    0 -0.34044685954E+02  0.83718806136E+01  0.44689653673E+02  0.56800476865E+02  0.00000000000E+00 0.  1.
</event>
<event>
12   0  0.1544783E-01  0.1800308E+03  0.7957747E-01  0.1173394E+00
       21   -1    0    0  501  503  0.00000000000E+00  0.00000000000E+00  0.28845946922E+03  0.28845946922E+03  0.00000000000E+00 0.  1.
       21   -1    0    0  503  504  0.00000000000E+00  0.00000000000E+00 -0.11222231607E+03  0.11222231607E+03  0.00000000000E+00 0.  1.
        6    2    1    2  501    0 -0.35055385655E+02  0.21067170070E+02  0.69905892967E+02  0.19312672008E+03  0.17532367330E+03 0.  0.
       24    2    3    3    0    0  0.28820252652E+02  0.58127235725E+02  0.22103279032E+02  0.10503173989E+03  0.79584728083E+02 0.  0.
       -6    2    1    2    0  504  0.35055385655E+02 -0.21067170070E+02  0.10633126018E+03  0.20755506522E+03  0.17349369582E+03 0.  0.
      -24    2    5    5    0    0 -0.46731027527E+01 -0.35627684794E+02 -0.48867122532E+01  0.88467329608E+02  0.80693361797E+02 0.  0.
        5    1    3    3  501    0 -0.63875638307E+02 -0.37060065655E+02  0.47802613935E+02  0.88094980189E+02  0.47000000000E+01 0. -1.
      -11    1    4    4    0    0  0.71912214698E+01  0.72166016163E+02  0.29365208407E+02  0.78242974252E+02  0.00000000000E+00 0.  1.
       12    1    4    4    0    0  0.21629031182E+02 -0.14038780438E+02 -0.72619293742E+01  0.26788765636E+02  0.00000000000E+00 0. -1.
       -5    1    5    5    0  504  0.39728488407E+02  0.14560514724E+02  0.11121797244E+03  0.11908773561E+03  0.47000000000E+01 0.  1.
        1    1    6    6  502    0  0.32357640870E+02 -0.32391836554E+01  0.14478310339E+02  0.35596779400E+02  0.00000000000E+00 0. -1.
       -2    1    6    6    0  502 -0.37030743622E+02 -0.32388501139E+02 -0.19365022592E+02  0.52870550207E+02  0.00000000000E+00 0.  1.
</event>
<event>
12   0  0.1544783E-01  0.1780017E+03  0.7957747E-01  0.1175302E+00
       21   -1    0    0  504  503  0.00000000000E+00  0.00000000000E+00  0.30956061470E+03  0.30956061470E+03  0.00000000000E+00 0. -1.
       21   -1    0    0  501  504  0.00000000000E+00  0.00000000000E+00 -0.15350889777E+03  0.15350889777E+03  0.00000000000E+00 0. -1.
        6    2    1    2  501    0 -0.25697775176E+02  0.31071788400E+02 -0.56133748893E+02  0.18610871088E+03  0.17279937157E+03 0.  0.
       24    2    3    3    0    0 -0.61563163296E+02 -0.13511270861E+02 -0.71914100185E+02  0.12656809680E+03  0.82917234676E+02 0.  0.
       -6    2    1    2    0  503  0.25697775176E+02 -0.31071788400E+02  0.21218546582E+03  0.27696080159E+03  0.17337468682E+03 0.  0.
      -24    2    5    5    0    0  0.25830925747E+02  0.52923626923E+01  0.26622870788E+02  0.87810237524E+02  0.79414197327E+02 0.  0.
        5    1    3    3  501    0  0.35865388120E+02  0.44583059261E+02  0.15780351292E+02  0.59540614079E+02  0.47000000000E+01 0. -1.
      -11    1    4    4    0    0 -0.15108510982E+02  0.10751109131E+00  0.18574844545E+02  0.23943757278E+02  0.00000000000E+00 0.  1.
       12    1    4    4    0    0 -0.46454652315E+02 -0.13618781952E+02 -0.90488944730E+02  0.10262433952E+03  0.00000000000E+00 0. -1.
       -5    1    5    5    0  503 -0.13315057043E+00 -0.36364151092E+02  0.18556259503E+03  0.18915056407E+03  0.47000000000E+01 0.  1.
        1    1    6    6  502    0  0.20425330007E+02 -0.34076662189E+02 -0.44014261666E+00  0.39731684301E+02  0.00000000000E+00 0. -1.
       -2    1    6    6    0  502  0.54055957392E+01  0.39369024882E+02  0.27063013405E+02  0.48078553223E+02  0.00000000000E+00 0.  1.
</event>
<event>
12   0  0.1544783E-01  0.1773862E+03  0.7957747E-01  0.1175886E+00
       -2   -1    0    0    0  501  0.00000000000E+00  0.00000000000E+00  0.27451912793E+02  0.27451912793E+02  0.00000000000E+00 0.  1.
        2   -1    0    0  502    0  0.00000000000E+00  0.00000000000E+00 -0.11710006846E+04  0.11710006846E+04  0.00000000000E+00 0. -1.
        6    2    1    2  502    0  0.36977327790E+02  0.60246136148E+02 -0.52274750679E+03  0.55539483103E+03  0.17378591080E+03 0.  0.
       24    2    3    3    0    0  0.69070487837E+02  0.74827798352E+02 -0.26161954956E+03  0.29185641668E+03  0.79783754906E+02 0.  0.
       -6    2    1    2    0  501 -0.36977327790E+02 -0.60246136148E+02 -0.62080126505E+03  0.64305776639E+03  0.15209260514E+03 0.  0.
      -24    2    5    5    0    0 -0.53519930777E+02 -0.56015618597E+01 -0.50350812929E+03  0.51252249565E+03  0.79139824329E+02 0.  0.
        5    1    3    3  502    0 -0.32093160047E+02 -0.14581662203E+02 -0.26112795722E+03  0.26353841435E+03  0.47000000000E+01 0. -1.
        2    1    4    4  503    0  0.21940985558E+02  0.17088842024E+02 -0.17667106892E+03  0.17884658779E+03  0.00000000000E+00 0. -1.
       -1    1    4    4    0  503  0.47129502279E+02  0.57738956328E+02 -0.84948480639E+02  0.11300982889E+03  0.00000000000E+00 0.  1.
       -5    1    5    5    0  501  0.16542602987E+02 -0.54644574289E+02 -0.11729313576E+03  0.13053527074E+03  0.47000000000E+01 0.  1.
       11    1    6    6    0    0 -0.57198687853E+02 -0.21948796644E+02 -0.21583351665E+03  0.22436030503E+03  0.00000000000E+00 0. -1.
      -12    1    6    6    0    0  0.36787570758E+01  0.16347234784E+02 -0.28767461265E+03  0.28816219061E+03  0.00000000000E+00 0.  1.
</event>
<event>
12   0  0.1544783E-01  0.2209256E+03  0.7957747E-01  0.1139984E+00
       21   -1    0    0  504  503  0.00000000000E+00  0.00000000000E+00  0.55735590197E+03  0.55735590197E+03  0.00000000000E+00 0.  1.
       21   -1    0    0  501  504  0.00000000000E+00  0.00000000000E+00 -0.17277280959E+03  0.17277280959E+03  0.00000000000E+00 0. -1.
        6    2    1    2  501    0 -0.79173712958E+02 -0.11296660194E+03 -0.64170521658E+02  0.22994081193E+03  0.17240937087E+03 0.  0.
       24    2    3    3    0    0 -0.33396390815E+02 -0.39267840793E+02  0.32916118039E+02  0.99652760965E+02  0.78676042739E+02 0.  0.
       -6    2    1    2    0  503  0.79173712958E+02  0.11296660194E+03  0.44875361403E+03  0.50018789962E+03  0.17256360812E+03 0.  0.
      -24    2    5    5    0    0  0.10357766094E+02  0.11673822635E+03  0.22347269184E+03  0.26455376883E+03  0.79457886923E+02 0.  0.
        5    1    3    3  501    0 -0.45777322142E+02 -0.73698761152E+02 -0.97086639697E+02  0.13028805097E+03  0.47000000000E+01 0. -1.
        4    1    4    4  502    0 -0.20529333168E+02 -0.61949578030E+02  0.33930135939E+02  0.73555814613E+02  0.00000000000E+00 0. -1.
       -3    1    4    4    0  502 -0.12867057647E+02  0.22681737237E+02 -0.10140178999E+01  0.26096946352E+02  0.00000000000E+00 0.  1.
       -5    1    5    5    0  503  0.68815946864E+02 -0.37716244009E+01  0.22528092219E+03  0.23563413080E+03  0.47000000000E+01 0.  1.
       13    1    6    6    0    0 -0.32712119127E+02  0.40963325875E+02  0.10624976160E+03  0.11847822013E+03  0.00000000000E+00 0. -1.
      -14    1    6    6    0    0  0.43069885220E+02  0.75774900471E+02  0.11722293024E+03  0.14607554870E+03  0.00000000000E+00 0.  1.
</event>
<event>
12   0  0.1544783E-01  0.1871706E+03  0.7957747E-01  0.1166896E+00
       21   -1    0    0  504  503  0.00000000000E+00  0.00000000000E+00  0.13840048232E+03  0.13840048232E+03  0.00000000000E+00 0. -1.
       21   -1    0    0  501  504  0.00000000000E+00  0.00000000000E+00 -0.49894179578E+03  0.49894179578E+03  0.00000000000E+00 0. -1.
        6    2    1    2  501    0 -0.55058574141E+02  0.41245385273E+02 -0.40440105180E+03  0.44561537346E+03  0.17406958946E+03 0.  0.
       24    2    3    3    0    0 -0.23260672338E+02 -0.36963595778E+02 -0.28031501551E+03  0.29545817025E+03  0.82532758059E+02 0.  0.
       -6    2    1    2    0  503  0.55058574141E+02 -0.41245385273E+02  0.43859738345E+02  0.19172690464E+03  0.17350187585E+03 0.  0.
      -24    2    5    5    0    0  0.36967371455E+02 -0.91524691384E+02  0.10641650384E+02  0.12863307288E+03  0.81791607341E+02 0.  0.
        5    1    3    3  501    0 -0.31797901804E+02  0.78208981051E+02 -0.12408603629E+03  0.15015720322E+03  0.47000000000E+01 0. -1.
        4    1    4    4  502    0  0.22640800659E+02 -0.37769291739E+02 -0.17712298304E+03  0.18251486617E+03  0.00000000000E+00 0. -1.
       -3    1    4    4    0  502 -0.45901472997E+02  0.80569596089E+00 -0.10319203247E+03  0.11294330407E+03  0.00000000000E+00 0.  1.
       -5    1    5    5    0  503  0.18091202687E+02  0.50279306112E+02  0.33218087962E+02  0.63093831755E+02  0.47000000000E+01 0.  1.
       13    1    6    6    0    0  0.32128263231E+02  0.38936581716E+01 -0.10435706840E+01  0.32380162321E+02  0.00000000000E+00 0. -1.
      -14    1    6    6    0    0  0.48391082238E+01 -0.95418349556E+02  0.11685221068E+02  0.96252910563E+02  0.00000000000E+00 0.  1.
</event>
<event>
12   0  0.1544783E-01  0.1814721E+03  0.7957747E-01  0.1172056E+00
       21   -1    0    0  504  503  0.00000000000E+00  0.00000000000E+00  0.81072443712E+02  0.81072443712E+02  0.00000000000E+00 0. -1.
       21   -1    0    0  501  504  0.00000000000E+00  0.00000000000E+00 -0.43352858056E+03  0.43352858056E+03  0.00000000000E+00 0. -1.
        6    2    1    2  501    0  0.46292685698E+02  0.53988372781E+01 -0.10601312695E+03  0.21016873972E+03  0.17538516436E+03 0.  0.
       24    2    3    3    0    0  0.41667910962E+02 -0.35151859916E+02 -0.10837931051E+02  0.10650507444E+03  0.90851538639E+02 0.  0.
       -6    2    1    2    0  503 -0.46292685698E+02 -0.53988372781E+01 -0.24644300990E+03  0.30443228455E+03  0.17254767039E+03 0.  0.
      -24    2    5    5    0    0  0.28952899072E+02  0.35167685590E+02 -0.13953618292E+03  0.16746987927E+03  0.80627400089E+02 0.  0.
        5    1    3    3  501    0  0.46247747365E+01  0.40550697194E+02 -0.95175195898E+02  0.10366366528E+03  0.47000000000E+01 0. -1.
      -11    1    4    4    0    0  0.80060446698E+01 -0.10107988287E+02 -0.48463191045E+02  0.50149267838E+02  0.00000000000E+00 0.  1.
       12    1    4    4    0    0  0.33661866292E+02 -0.25043871629E+02  0.37625259994E+02  0.56355806605E+02  0.00000000000E+00 0. -1.
       -5    1    5    5    0  503 -0.75245584771E+02 -0.40566522868E+02 -0.10690682697E+03  0.13696240527E+03  0.47000000000E+01 0.  1.
        3    1    6    6  502    0 -0.10438445467E+02  0.17139538444E+02 -0.11686468743E+03  0.11857520858E+03  0.00000000000E+00 0. -1.
       -4    1    6    6    0  502  0.39391344540E+02  0.18028147147E+02 -0.22671495489E+02  0.48894670690E+02  0.00000000000E+00 0.  1.
</event>
<event>
12   0  0.1544783E-01  0.2144959E+03  0.7957747E-01  0.1144687E+00
       21   -1    0    0  504  503  0.00000000000E+00  0.00000000000E+00  0.47131207528E+03  0.47131207528E+03  0.00000000000E+00 0.  1.
       21   -1    0    0  501  504  0.00000000000E+00  0.00000000000E+00 -0.11756918373E+03  0.11756918373E+03  0.00000000000E+00 0. -1.
        6    2    1    2  501    0 -0.12432775841E+03 -0.13254774154E+02  0.54449065366E+02  0.22129886997E+03  0.17428542274E+03 0.  0.
       24    2    3    3    0    0 -0.15509852310E+03  0.94221291022E+01  0.50997798402E+02  0.18263256494E+03  0.81299138664E+02 0.  0.
       -6    2    1    2    0  503  0.12432775841E+03  0.13254774154E+02  0.29929382619E+03  0.36758238904E+03  0.17293622463E+03 0.  0.
      -24    2    5    5    0    0  0.24956627992E+02 -0.25712312027E+02  0.21045870035E+03  0.22863338779E+03  0.81831565965E+02 0.  0.
        5    1    3    3  501    0  0.30770764692E+02 -0.22676903256E+02  0.34512669635E+01  0.38666305030E+02  0.47000000000E+01 0. -1.
      -11    1    4    4    0    0  0.67636060102E+01 -0.44764805316E+01  0.13742982161E+02  0.15957907222E+02  0.00000000000E+00 0.  1.
       12    1    4    4    0    0 -0.16186212911E+03  0.13898609634E+02  0.37254816241E+02  0.16667465771E+03  0.00000000000E+00 0. -1.
       -5    1    5    5    0  503  0.99371130419E+02  0.38967086180E+02  0.88835125841E+02  0.13894900125E+03  0.47000000000E+01 0.  1.
        1    1    6    6  502    0 -0.22792753683E+02  0.14314673285E+02  0.58364626902E+02  0.64271682452E+02  0.00000000000E+00 0. -1.
       -2    1    6    6    0  502  0.47749381675E+02 -0.40026985311E+02  0.15209407344E+03  0.16436170533E+03  0.00000000000E+00 0.  1.
</event>
<event>
12   0  0.1544783E-01  0.1989343E+03  0.7957747E-01  0.1156856E+00
       -1   -1    0    0    0  501  0.00000000000E+00  0.00000000000E+00  0.17688849133E+03  0.17688849133E+03  0.00000000000E+00 0.  1.
        1   -1    0    0  502    0  0.00000000000E+00  0.00000000000E+00 -0.24476747866E+03  0.24476747866E+03  0.00000000000E+00 0. -1.
        6    2    1    2  502    0 -0.15518821190E+02  0.95086359110E+02  0.27869796100E+02  0.20089391888E+03  0.17406720429E+03 0.  0.
       24    2    3    3    0    0 -0.52016239885E+02  0.99935195592E+02  0.60577369140E+02  0.15142222879E+03  0.81032963598E+02 0.  0.
       -6    2    1    2    0  501  0.15518821190E+02 -0.95086359110E+02 -0.95748783434E+02  0.22076205110E+03  0.17402817065E+03 0.  0.
      -24    2    5    5    0    0  0.40691384049E+02 -0.10092694607E+03 -0.16947167038E+02  0.13769849036E+03  0.82653678663E+02 0.  0.
        5    1    3    3  502    0  0.36497418695E+02 -0.48488364822E+01 -0.32707573040E+02  0.49471690094E+02  0.47000000000E+01 0. -1.
        2    1    4    4  503    0 -0.29120250492E+02  0.86880738403E+02  0.72256706678E+01  0.91915515615E+02  0.00000000000E+00 0. -1.
       -1    1    4    4    0  503 -0.22895989393E+02  0.13054457189E+02  0.53351698472E+02  0.59506713173E+02  0.00000000000E+00 0.  1.
       -5    1    5    5    0  501 -0.25172562859E+02  0.58405869647E+01 -0.78801616396E+02  0.83063560745E+02  0.47000000000E+01 0.  1.
       11    1    6    6    0    0  0.55556642896E+02 -0.33425788646E+02 -0.21815548557E+02  0.68408640356E+02  0.00000000000E+00 0. -1.
      -12    1    6    6    0    0 -0.14865258846E+02 -0.67501157428E+02  0.48683815191E+01  0.69289850002E+02  0.00000000000E+00 0.  1.
</event>
<event>
12   0  0.1544783E-01  0.2786903E+03  0.7957747E-01  0.1104304E+00
       21   -1    0    0  501  503  0.00000000000E+00  0.00000000000E+00  0.61850233640E+03  0.61850233640E+03  0.00000000000E+00 0. -1.
       21   -1    0    0  503  504  0.00000000000E+00  0.00000000000E+00 -0.17750414117E+03  0.17750414117E+03  0.00000000000E+00 0.  1.
        6    2    1    2  501    0 -0.57083241605E+02 -0.21141710015E+03  0.43828275692E+03  0.51730292079E+03  0.16599653651E+03 0.  0.
       24    2    3    3    0    0 -0.40788009519E+02 -0.62289631773E+02  0.27099273793E+03  0.29255288882E+03  0.81280187016E+02 0.  0.
       -6    2    1    2    0  504  0.57083241605E+02  0.21141710015E+03  0.27154383162E+01  0.27870355678E+03  0.17237346735E+03 0.  0.
      -24    2    5    5    0    0 -0.45065461718E+01  0.13412767632E+03 -0.55679083431E+02  0.16381679878E+03  0.75665320428E+02 0.  0.
        5    1    3    3  501    0 -0.16295232086E+02 -0.14912746838E+03  0.16729001899E+03  0.22475003197E+03  0.47000000000E+01 0. -1.
        4    1    4    4  502    0 -0.62445750713E+02 -0.60761941099E+02  0.19628121703E+03  0.21475055629E+03  0.00000000000E+00 0. -1.
       -3    1    4    4    0  502  0.21657741194E+02 -0.15276906737E+01  0.74711520898E+02  0.77802332531E+02  0.00000000000E+00 0.  1.
       -5    1    5    5    0  504  0.61589787777E+02  0.77289423829E+02  0.58394521748E+02  0.11488675800E+03  0.47000000000E+01 0.  1.
       13    1    6    6    0    0 -0.12958495573E+02 -0.54063470660E+01 -0.77549301396E+01  0.16040266132E+02  0.00000000000E+00 0. -1.
      -14    1    6    6    0    0  0.84519494012E+01  0.13953402339E+03 -0.47924153292E+02  0.14777653265E+03  0.00000000000E+00 0.  1.
</event>
<event>
12   0  0.1544783E-01  0.1877366E+03  0.7957747E-01  0.1166395E+00
       21   -1    0    0  501  503  0.00000000000E+00  0.00000000000E+00  0.26685283523E+03  0.26685283523E+03  0.00000000000E+00 0.  1.
       21   -1    0    0  503  504  0.00000000000E+00  0.00000000000E+00 -0.13062003798E+03  0.13062003798E+03  0.00000000000E+00 0.  1.
        6    2    1    2  501    0 -0.51937541879E+02 -0.49752328826E+02  0.68904223777E+02  0.19998209186E+03  0.17341350158E+03 0.  0.
       24    2    3    3    0    0 -0.36181013919E+02 -0.98165306762E+02  0.68937731697E+02  0.14885308122E+03  0.80369992647E+02 0.  0.
       -6    2    1    2    0  504  0.51937541879E+02  0.49752328826E+02  0.67328573472E+02  0.19749078135E+03  0.17116269872E+03 0.  0.
      -24    2    5    5    0    0  0.40077764264E+02 -0.23976723757E+02 -0.25450887451E+01  0.95113800585E+02  0.82819364369E+02 0.  0.
        5    1    3    3  501    0 -0.15756527960E+02  0.48412977936E+02 -0.33507919743E-01  0.51129010637E+02  0.47000000000E+01 0. -1.
      -11    1    4    4    0    0  0.86311200786E+01 -0.75580133947E+02  0.19769374171E+02  0.78598225403E+02  0.00000000000E+00 0.  1.
       12    1    4    4    0    0 -0.44812133997E+02 -0.22585172814E+02  0.49168357526E+02  0.70254855820E+02  0.00000000000E+00 0. -1.
       -5    1    5    5    0  504  0.11859777615E+02  0.73729052583E+02  0.69873662217E+02  0.10237698077E+03  0.47000000000E+01 0.  1.
        1    1    6    6  502    0 -0.16208145156E+02 -0.28156013105E+02 -0.17257331691E+02  0.36786961555E+02  0.00000000000E+00 0. -1.
       -2    1    6    6    0  502  0.56285909421E+02  0.41792893473E+01  0.14712242946E+02  0.58326839030E+02  0.00000000000E+00 0.  1.
</event>
<event>
12   0  0.1544783E-01  0.1861813E+03  0.7957747E-01  0.1167778E+00
       21   -1    0    0  504  503  0.00000000000E+00  0.00000000000E+00  0.37349801627E+02  0.37349801627E+02  0.00000000000E+00 0.  1.
       21   -1    0    0  501  504  0.00000000000E+00  0.00000000000E+00 -0.11465580650E+04  0.11465580650E+04  0.00000000000E+00 0.  1.
        6    2    1    2  501    0 -0.85959951858E+01 -0.64161408512E+02 -0.81374886608E+03  0.83468051841E+03  0.17410851012E+03 0.  0.
       24    2    3    3    0    0  0.56552300464E+02 -0.18479491453E+02 -0.53657766759E+03  0.54627611268E+03  0.83440659386E+02 0.  0.
       -6    2    1    2    0  503  0.85959951858E+01  0.64161408512E+02 -0.29545939732E+03  0.34922734824E+03  0.17456491005E+03 0.  0.
      -24    2    5    5    0    0 -0.39161372936E+02  0.83963214063E+02 -0.25444595185E+03  0.28306791639E+03  0.82469803158E+02 0.  0.
        5    1    3    3  501    0 -0.65148295650E+02 -0.45681917059E+02 -0.27717119849E+03  0.28840440573E+03  0.47000000000E+01 0. -1.
        2    1    4    4  502    0  0.16982212751E+02 -0.29558244293E+02 -0.44001909557E+03  0.44133761432E+03  0.00000000000E+00 0. -1.
       -1    1    4    4    0  502  0.39570087713E+02  0.11078752840E+02 -0.96558572025E+02  0.10493849836E+03  0.00000000000E+00 0.  1.
       -5    1    5    5    0  503  0.47757368122E+02 -0.19801805551E+02 -0.41013445469E+02  0.66159431846E+02  0.47000000000E+01 0.  1.
       13    1    6    6    0    0  0.41051135670E+01  0.31042651506E+02 -0.17709190773E+03  0.17983893337E+03  0.00000000000E+00 0. -1.
      -14    1    6    6    0    0 -0.43266486503E+02  0.52920562557E+02 -0.77354044117E+02  0.10322898303E+03  0.00000000000E+00 0.  1.
</event>
<event>
12   0  0.1544783E-01  0.1759309E+03  0.7957747E-01  0.1177277E+00
       -1   -1    0    0    0  501  0.00000000000E+00  0.00000000000E+00  0.79246767585E+02  0.79246767585E+02  0.00000000000E+00 0. -1.
        1   -1    0    0  502    0  0.00000000000E+00  0.00000000000E+00 -0.39408611271E+03  0.39408611271E+03  0.00000000000E+00 0.  1.
        6    2    1    2  502    0 -0.18158367248E+02  0.76714968080E+01 -0.17896888392E+03  0.25035915079E+03  0.17395765234E+03 0.  0.
       24    2    3    3    0    0 -0.59980576720E+02  0.34469125979E+02 -0.60305813665E+02  0.12163376721E+03  0.79826010387E+02 0.  0.
       -6    2    1    2    0  501  0.18158367248E+02 -0.76714968080E+01 -0.13587046120E+03  0.22297372951E+03  0.17569269666E+03 0.  0.
      -24    2    5    5    0    0 -0.25830560159E+02 -0.37967530206E+02 -0.20303161652E+02  0.95573705569E+02  0.81322589943E+02 0.  0.
        5    1    3    3  502    0  0.41822209473E+02 -0.26797629171E+02 -0.11866307026E+03  0.12872538358E+03  0.47000000000E+01 0. -1.
        4    1    4    4  503    0 -0.32832601679E+02  0.59944601795E+02 -0.37155856058E+02  0.77793911438E+02  0.00000000000E+00 0. -1.
       -3    1    4    4    0  503 -0.27147975042E+02 -0.25475475816E+02 -0.23149957606E+02  0.43839855772E+02  0.00000000000E+00 0.  1.
       -5    1    5    5    0  501  0.43988927407E+02  0.30296033398E+02 -0.11556729955E+03  0.12740002394E+03  0.47000000000E+01 0.  1.
       13    1    6    6    0    0 -0.10248112256E+02 -0.29817798716E+02  0.29240665340E+02  0.43001644557E+02  0.00000000000E+00 0. -1.
      -14    1    6    6    0    0 -0.15582447903E+02 -0.81497314898E+01 -0.49543826992E+02  0.52572061012E+02  0.00000000000E+00 0.  1.
</event>
<event>
12   0  0.1544783E-01  0.1999828E+03  0.7957747E-01  0.1155998E+00
       21   -1    0    0  504  503  0.00000000000E+00  0.00000000000E+00  0.11507095251E+03  0.11507095251E+03  0.00000000000E+00 0. -1.
       21   -1    0    0  501  504  0.00000000000E+00  0.00000000000E+00 -0.40600369602E+03  0.40600369602E+03  0.00000000000E+00 0.  1.
        6    2    1    2  501    0  0.82537860950E+02  0.52391401598E+02 -0.25218885471E+03  0.32185762353E+03  0.17445845905E+03 0.  0.
       24    2    3    3    0    0  0.88362784120E+02 -0.23393742929E+02 -0.18075290167E+03  0.21744257075E+03  0.79084836015E+02 0.  0.
       -6    2    1    2    0  503 -0.82537860950E+02 -0.52391401598E+02 -0.38743888803E+02  0.19921702500E+03  0.16920099491E+03 0.  0.
      -24    2    5    5    0    0 -0.32939122840E+02 -0.25957735581E+02 -0.85088946989E+02  0.12621888845E+03  0.83260369033E+02 0.  0.
        5    1    3    3  501    0 -0.58249231693E+01  0.75785144527E+02 -0.71435953042E+02  0.10441505278E+03  0.47000000000E+01 0. -1.
      -11    1    4    4    0    0  0.89662361624E+01  0.21199081889E+02 -0.72051705630E+02  0.75638897057E+02  0.00000000000E+00 0.  1.
       12    1    4    4    0    0  0.79396547957E+02 -0.44592824818E+02 -0.10870119604E+03  0.14180367369E+03  0.00000000000E+00 0. -1.
       -5    1    5    5    0  503 -0.49598738110E+02 -0.26433666016E+02  0.46345058186E+02  0.72998136548E+02  0.47000000000E+01 0.  1.
        1    1    6    6  502    0  0.20806199601E+02 -0.31190244155E+02 -0.47073843648E+02  0.60180362479E+02  0.00000000000E+00 0. -1.
       -2    1    6    6    0  502 -0.53745322441E+02  0.52325085739E+01 -0.38015103341E+02  0.66038525970E+02  0.00000000000E+00 0.  1.
</event>
<event>
12   0  0.1544783E-01  0.2607900E+03  0.7957747E-01  0.1114272E+00
       21   -1    0    0  504  503  0.00000000000E+00  0.00000000000E+00  0.20044123406E+03  0.20044123406E+03  0.00000000000E+00 0. -1.
       21   -1    0    0  501  504  0.00000000000E+00  0.00000000000E+00 -0.34309441491E+03  0.34309441491E+03  0.00000000000E+00 0.  1.
        6    2    1    2  501    0  0.16455927101E+03 -0.10475208801E+03 -0.10302568958E+03  0.28040276644E+03  0.17308571604E+03 0.  0.
       24    2    3    3    0    0  0.18075493870E+03 -0.55918925127E+02 -0.60398453741E+02  0.21342404829E+03  0.78118993350E+02 0.  0.
       -6    2    1    2    0  503 -0.16455927101E+03  0.10475208801E+03 -0.39627491265E+02  0.26313288253E+03  0.17209248150E+03 0.  0.
      -24    2    5    5    0    0 -0.17721471683E+03  0.12971965750E+03 -0.37995901173E+02  0.23470240731E+03  0.73547848962E+02 0.  0.
        5    1    3    3  501    0 -0.16195667696E+02 -0.48833162880E+02 -0.42627235842E+02  0.66978718146E+02  0.47000000000E+01 0. -1.
        4    1    4    4  502    0  0.45982861949E+02  0.16809423367E+02 -0.29609315993E+02  0.57216185652E+02  0.00000000000E+00 0. -1.
       -3    1    4    4    0  502  0.13477207676E+03 -0.72728348494E+02 -0.30789137748E+02  0.15620786264E+03  0.00000000000E+00 0.  1.
       -5    1    5    5    0  503  0.12655445819E+02 -0.24967569492E+02 -0.16315900926E+01  0.28430475224E+02  0.47000000000E+01 0.  1.
       11    1    6    6    0    0 -0.13827459431E+03  0.13325253289E+03 -0.37157246530E+02  0.19559335858E+03  0.00000000000E+00 0. -1.
      -12    1    6    6    0    0 -0.38940122520E+02 -0.35328753886E+01 -0.83865464240E+00  0.39109048722E+02  0.00000000000E+00 0.  1.
</event>
<event>
12   0  0.1544783E-01  0.1815805E+03  0.7957747E-01  0.1171956E+00
       21   -1    0    0  504  503  0.00000000000E+00  0.00000000000E+00  0.16410221911E+03  0.16410221911E+03  0.00000000000E+00 0. -1.
       21   -1    0    0  501  504  0.00000000000E+00  0.00000000000E+00 -0.41259756038E+03  0.41259756038E+03  0.00000000000E+00 0. -1.
        6    2    1    2  501    0  0.66320756575E+00  0.48363175049E+02 -0.33197464680E+03  0.37838952946E+03  0.17502009410E+03 0.  0.
       24    2    3    3    0    0 -0.67376153271E+02  0.46774276340E+02 -0.19310516806E+03  0.22366816264E+03  0.77527170033E+02 0.  0.
       -6    2    1    2    0  503 -0.66320756575E+00 -0.48363175049E+02  0.83479305531E+02  0.19831025003E+03  0.17325912464E+03 0.  0.
      -24    2    5    5    0    0 -0.26223328121E+02  0.84686735581E+01  0.10280242037E+03  0.13289884777E+03  0.79588848059E+02 0.  0.
        5    1    3    3  501    0  0.68039360836E+02  0.15888987085E+01 -0.13886947874E+03  0.15472136681E+03  0.47000000000E+01 0. -1.
        4    1    4    4  502    0 -0.72619558352E+02  0.72852102403E+01 -0.12197305911E+03  0.14214113301E+03  0.00000000000E+00 0. -1.
       -3    1    4    4    0  502  0.52434050817E+01  0.39489066100E+02 -0.71132108948E+02  0.81527029638E+02  0.00000000000E+00 0.  1.
       -5    1    5    5    0  503  0.25560120555E+02 -0.56831848607E+02 -0.19323114837E+02  0.65411402262E+02  0.47000000000E+01 0.  1.
       13    1    6    6    0    0  0.10752737171E+02 -0.26084650753E+02  0.16038195723E+02  0.32453876249E+02  0.00000000000E+00 0. -1.
      -14    1    6    6    0    0 -0.36976065292E+02  0.34553324311E+02  0.86764224646E+02  0.10044497152E+03  0.00000000000E+00 0.  1.
</event>
<event>
12   0  0.1544783E-01  0.1858644E+03  0.7957747E-01  0.1168061E+00
       21   -1    0    0  501  503  0.00000000000E+00  0.00000000000E+00  0.21802813180E+03  0.21802813180E+03  0.00000000000E+00 0. -1.
       21   -1    0    0  503  504  0.00000000000E+00  0.00000000000E+00 -0.18118251114E+03  0.18118251114E+03  0.00000000000E+00 0. -1.
        6    2    1    2  501    0  0.21735446570E+02 -0.60127043706E+02  0.93469989492E+02  0.20804378708E+03  0.17452188225E+03 0.  0.
       24    2    3    3    0    0  0.32796902300E+02  0.29327676501E+02  0.67949522978E+02  0.11424673499E+03  0.80619038529E+02 0.  0.
       -6    2    1    2    0  504 -0.21735446570E+02  0.60127043706E+02 -0.56624368834E+02  0.19116685586E+03  0.17102852572E+03 0.  0.
      -24    2    5    5    0    0 -0.56398334731E+02  0.37776526806E+02 -0.88350577305E+02  0.13892028922E+03  0.82977009518E+02 0.  0.
        5    1    3    3  501    0 -0.11061455730E+02 -0.89454720206E+02  0.25520466514E+02  0.93797052092E+02  0.47000000000E+01 0. -1.
      -11    1    4    4    0    0 -0.50629981090E+01  0.21718312469E+02  0.72040886783E+02  0.75413582429E+02  0.00000000000E+00 0.  1.
       12    1    4    4    0    0  0.37859900409E+02  0.76093640313E+01 -0.40913638049E+01  0.38833152560E+02  0.00000000000E+00 0. -1.
       -5    1    5    5    0  504  0.34662888160E+02  0.22350516899E+02  0.31726208472E+02  0.52246566636E+02  0.47000000000E+01 0.  1.
        1    1    6    6  502    0  0.16897158877E+02  0.17123883198E+02 -0.45686991451E+02  0.51633734532E+02  0.00000000000E+00 0. -1.
       -2    1    6    6    0  502 -0.73295493608E+02  0.20652643609E+02 -0.42663585854E+02  0.87286554687E+02  0.00000000000E+00 0.  1.
</event>
<event>
12   0  0.1544783E-01  0.1943149E+03  0.7957747E-01  0.1160706E+00
       21   -1    0    0  504  503  0.00000000000E+00  0.00000000000E+00  0.56039341461E+03  0.56039341461E+03  0.00000000000E+00 0.  1.
       21   -1    0    0  501  504  0.00000000000E+00  0.00000000000E+00 -0.15999003838E+03  0.15999003838E+03  0.00000000000E+00 0.  1.
        6    2    1    2  501    0 -0.71595429720E+01 -0.86375780282E+02  0.47664986627E+03  0.51473620407E+03  0.17391443382E+03 0.  0.
       24    2    3    3    0    0 -0.48619899203E+02 -0.37477836418E+02  0.40978142723E+03  0.42198142957E+03  0.79868804797E+02 0.  0.
       -6    2    1    2    0  503  0.71595429720E+01  0.86375780282E+02 -0.76246490041E+02  0.20564724891E+03  0.17019174265E+03 0.  0.
      -24    2    5    5    0    0 -0.56196657499E+02  0.39928926752E+02 -0.70319620051E+02  0.12672617360E+03  0.79763968086E+02 0.  0.
        5    1    3    3  501    0  0.41460356231E+02 -0.48897943863E+02  0.66868439042E+02  0.92754774501E+02  0.47000000000E+01 0. -1.
        2    1    4    4  502    0 -0.32914866282E+02  0.20407039161E+02  0.20373175801E+03  0.20738000118E+03  0.00000000000E+00 0. -1.
       -1    1    4    4    0  502 -0.15705032921E+02 -0.57884875580E+02  0.20604966922E+03  0.21460142839E+03  0.00000000000E+00 0.  1.
       -5    1    5    5    0  503  0.63356200471E+02  0.46446853530E+02 -0.59268699910E+01  0.78921075315E+02  0.47000000000E+01 0.  1.
       13    1    6    6    0    0 -0.10057294354E+02 -0.11590268892E+02 -0.53352557614E+02  0.55515573551E+02  0.00000000000E+00 0. -1.
      -14    1    6    6    0    0 -0.46139363145E+02  0.51519195643E+02 -0.16967062436E+02  0.71210600046E+02  0.00000000000E+00 0.  1.
</event>
<event>
12   0  0.1544783E-01  0.2255502E+03  0.7957747E-01  0.1136708E+00
       -1   -1    0    0    0  501  0.00000000000E+00  0.00000000000E+00  0.29018525045E+03  0.29018525045E+03  0.00000000000E+00 0. -1.
        1   -1    0    0  502    0  0.00000000000E+00  0.00000000000E+00 -0.20893935306E+03  0.20893935306E+03  0.00000000000E+00 0.  1.
        6    2    1    2  502    0 -0.74488561157E+02  0.12432441421E+03 -0.59538144667E+02  0.23300401918E+03  0.17245572351E+03 0.  0.
       24    2    3    3    0    0  0.98972323247E+01  0.49714871100E+02 -0.72142570200E+02  0.11956457450E+03  0.80756507014E+02 0.  0.
       -6    2    1    2    0  501  0.74488561157E+02 -0.12432441421E+03  0.14078404206E+03  0.26612058433E+03  0.17319039578E+03 0.  0.
      -24    2    5    5    0    0  0.44033984766E+02 -0.53133779246E+01  0.10352624434E+03  0.13766303697E+03  0.79159362563E+02 0.  0.
        5    1    3    3  502    0 -0.84385793482E+02  0.74609543115E+02  0.12604425533E+02  0.11343944468E+03  0.47000000000E+01 0. -1.
        4    1    4    4  503    0  0.21639841127E+02 -0.16943142392E+02 -0.24214840362E+02  0.36629377443E+02  0.00000000000E+00 0. -1.
       -3    1    4    4    0  503 -0.11742608802E+02  0.66658013492E+02 -0.47927729838E+02  0.82935197061E+02  0.00000000000E+00 0.  1.
       -5    1    5    5    0  501  0.30454576391E+02 -0.11901103629E+03  0.37257797724E+02  0.12845754736E+03  0.47000000000E+01 0.  1.
       13    1    6    6    0    0 -0.19849048452E+01 -0.18813762790E+02  0.83627131447E+02  0.85740274268E+02  0.00000000000E+00 0. -1.
      -14    1    6    6    0    0  0.46018889611E+02  0.13500384866E+02  0.19899112891E+02  0.51922762700E+02  0.00000000000E+00 0.  1.
</event>
<event>
12   0  0.1544783E-01  0.2459995E+03  0.7957747E-01  0.1123188E+00
       21   -1    0    0  504  503  0.00000000000E+00  0.00000000000E+00  0.10213222327E+04  0.10213222327E+04  0.00000000000E+00 0. -1.
       21   -1    0    0  501  504  0.00000000000E+00  0.00000000000E+00 -0.60827611770E+02  0.60827611770E+02  0.00000000000E+00 0.  1.
        6    2    1    2  501    0  0.95947813918E+02 -0.14626762907E+03  0.58469703181E+03  0.63433932659E+03  0.17296115155E+03 0.  0.
       24    2    3    3    0    0  0.61018282096E+02 -0.70082507214E+02  0.50064428317E+03  0.51554875652E+03  0.80690975387E+02 0.  0.
       -6    2    1    2    0  503 -0.95947813918E+02  0.14626762907E+03  0.37579758908E+03  0.44781051784E+03  0.16944093254E+03 0.  0.
      -24    2    5    5    0    0 -0.13052976281E+03  0.95748639320E+02  0.30113238937E+03  0.35114065924E+03  0.80082618167E+02 0.  0.
        5    1    3    3  501    0  0.34929531822E+02 -0.76185121851E+02  0.84052748645E+02  0.11879057008E+03  0.47000000000E+01 0. -1.
        4    1    4    4  502    0  0.30633765105E+02 -0.19311682189E+02  0.37417114047E+03  0.37591942088E+03  0.00000000000E+00 0. -1.
       -3    1    4    4    0  502  0.30384516991E+02 -0.50770825025E+02  0.12647314270E+03  0.13962933564E+03  0.00000000000E+00 0.  1.
       -5    1    5    5    0  503  0.34581948891E+02  0.50518989745E+02  0.74665199710E+02  0.96669858600E+02  0.47000000000E+01 0.  1.
       13    1    6    6    0    0 -0.11007548044E+03  0.42290149233E+02  0.23994357387E+03  0.26735367354E+03  0.00000000000E+00 0. -1.
      -14    1    6    6    0    0 -0.20454282374E+02  0.53458490087E+02  0.61188815500E+02  0.83786985697E+02  0.00000000000E+00 0.  1.
</event>
<event>
12   0  0.1544783E-01  0.1818962E+03  0.7957747E-01  0.1171665E+00
        2   -1    0    0  502    0  0.00000000000E+00  0.00000000000E+00  0.51464737800E+03  0.51464737800E+03  0.00000000000E+00 0.  1.
       -2   -1    0    0    0  501  0.00000000000E+00  0.00000000000E+00 -0.66039915330E+02  0.66039915330E+02  0.00000000000E+00 0. -1.
        6    2    1    2  502    0 -0.55670548263E+02  0.28529133547E+02  0.27172441201E+03  0.32705479079E+03  0.17093144442E+03 0.  0.
       24    2    3    3    0    0 -0.92514626268E+01 -0.45049798850E+02  0.15954727599E+03  0.18501820871E+03  0.81616973363E+02 0.  0.
       -6    2    1    2    0  501  0.55670548263E+02 -0.28529133547E+02  0.17688305066E+03  0.25363250253E+03  0.17067135474E+03 0.  0.
      -24    2    5    5    0    0  0.16679192831E+02 -0.11705825528E+02  0.17350994386E+02  0.88478282278E+02  0.84333431116E+02 0.  0.
        5    1    3    3  502    0 -0.46419085636E+02  0.73578932397E+02  0.11217713603E+03  0.14203658209E+03  0.47000000000E+01 0. -1.
      -11    1    4    4    0    0 -0.21798930292E+02 -0.32229774108E+02  0.16227398389E+03  0.16687359752E+03  0.00000000000E+00 0.  1.
       12    1    4    4    0    0  0.12547467665E+02 -0.12820024742E+02 -0.27267079036E+01  0.18144611188E+02  0.00000000000E+00 0. -1.
       -5    1    5    5    0  501  0.38991355432E+02 -0.16823308019E+02  0.15953205627E+03  0.16515422026E+03  0.47000000000E+01 0.  1.
        3    1    6    6  503    0  0.30864575378E+02  0.11226483314E+02 -0.22893914024E+02  0.40034825343E+02  0.00000000000E+00 0. -1.
       -4    1    6    6    0  503 -0.14185382547E+02 -0.22932308842E+02  0.40244908411E+02  0.48443456935E+02  0.00000000000E+00 0.  1.
</event>
<event>
12   0  0.1544783E-01  0.2581290E+03  0.7957747E-01  0.1115828E+00
       21   -1    0    0  504  503  0.00000000000E+00  0.00000000000E+00  0.75645711160E+03  0.75645711160E+03  0.00000000000E+00 0.  1.
       21   -1    0    0  501  504  0.00000000000E+00  0.00000000000E+00 -0.88526354387E+02  0.88526354387E+02  0.00000000000E+00 0. -1.
        6    2    1    2  501    0  0.17568977800E+03  0.75656176203E+02  0.30261184001E+03  0.39767094741E+03  0.17314012132E+03 0.  0.
       24    2    3    3    0    0  0.19300842383E+03  0.60216480778E+02  0.30360922047E+03  0.37397697231E+03  0.82473879743E+02 0.  0.
       -6    2    1    2    0  503 -0.17568977800E+03 -0.75656176203E+02  0.36531891720E+03  0.44731251858E+03  0.17332000150E+03 0.  0.
      -24    2    5    5    0    0 -0.11136252395E+03 -0.67998619023E+02  0.13948463340E+03  0.21232348153E+03  0.92735505183E+02 0.  0.
        5    1    3    3  501    0 -0.17318645831E+02  0.15439695426E+02 -0.99738045639E+00  0.23693975100E+02  0.47000000000E+01 0. -1.
        2    1    4    4  502    0  0.85458829121E+02 -0.46929265082E+01  0.78227313538E+02  0.11595148821E+03  0.00000000000E+00 0. -1.
       -1    1    4    4    0  502  0.10754959471E+03  0.64909407286E+02  0.22538190693E+03  0.25802548411E+03  0.00000000000E+00 0.  1.
       -5    1    5    5    0  503 -0.64327254045E+02 -0.76575571805E+01  0.22583428380E+03  0.23498903705E+03  0.47000000000E+01 0.  1.
       11    1    6    6    0    0 -0.10146132049E+03 -0.57998397311E+02  0.15319018193E+03  0.19267964471E+03  0.00000000000E+00 0. -1.
      -12    1    6    6    0    0 -0.99012034654E+01 -0.10000221711E+02 -0.13705548529E+02  0.19643836815E+02  0.00000000000E+00 0.  1.
</event>
<event>
12   0  0.1544783E-01  0.1834479E+03  0.7957747E-01  0.1170244E+00
        2   -1    0    0  502    0  0.00000000000E+00  0.00000000000E+00  0.14651785503E+04  0.14651785503E+04  0.00000000000E+00 0. -1.
       -2   -1    0    0    0  501  0.00000000000E+00  0.00000000000E+00 -0.24889733376E+02  0.24889733376E+02  0.00000000000E+00 0.  1.
        6    2    1    2  502    0 -0.33993839996E+02 -0.59690071693E+02  0.91835048044E+03  0.93603684646E+03  0.16756756006E+03 0.  0.
       24    2    3    3    0    0  0.25863031440E+01  0.16114881218E+02  0.63817270417E+03  0.64345151861E+03  0.80616859825E+02 0.  0.
       -6    2    1    2    0  501  0.33993839996E+02  0.59690071693E+02  0.52193833650E+03  0.55403143723E+03  0.17266360508E+03 0.  0.
      -24    2    5    5    0    0  0.73954314016E+02 -0.21521951966E+01  0.35231598212E+03  0.36905809168E+03  0.81261622406E+02 0.  0.
        5    1    3    3  502    0 -0.36580143140E+02 -0.75804952911E+02  0.28017777627E+03  0.29258532785E+03  0.47000000000E+01 0. -1.
        4    1    4    4  503    0 -0.30684757492E+02  0.28056542385E+02  0.22813136188E+03  0.23188928864E+03  0.00000000000E+00 0. -1.
       -3    1    4    4    0  503  0.33271060636E+02 -0.11941661167E+02  0.41004134229E+03  0.41156222997E+03  0.00000000000E+00 0.  1.
       -5    1    5    5    0  501 -0.39960474020E+02  0.61842266890E+02  0.16962235438E+03  0.18497334555E+03  0.47000000000E+01 0.  1.
       11    1    6    6    0    0  0.32210589038E+01 -0.18638395901E+02  0.15366604501E+02  0.24370013461E+02  0.00000000000E+00 0. -1.
      -12    1    6    6    0    0  0.70733255112E+02  0.16486200704E+02  0.33694937762E+03  0.34468807822E+03  0.00000000000E+00 0.  1.
</event>
<event>
12   0  0.1544783E-01  0.1773065E+03  0.7957747E-01  0.1175962E+00
       21   -1    0    0  504  503  0.00000000000E+00  0.00000000000E+00  0.14800711171E+03  0.14800711171E+03  0.00000000000E+00 0. -1.
       21   -1    0    0  501  504  0.00000000000E+00  0.00000000000E+00 -0.21076037872E+03  0.21076037872E+03  0.00000000000E+00 0. -1.
        6    2    1    2  501    0  0.40446422764E+02 -0.18803475723E+02 -0.33564618719E+02  0.18045549556E+03  0.17160454083E+03 0.  0.
       24    2    3    3    0    0 -0.19153551052E+01  0.68765514999E+01  0.40129188429E+02  0.91535018532E+02  0.81959455269E+02 0.  0.
       -6    2    1    2    0  503 -0.40446422764E+02  0.18803475723E+02 -0.29188648294E+02  0.17831199487E+03  0.17015788701E+03 0.  0.
      -24    2    5    5    0    0 -0.65940987382E+02 -0.10261832472E+02  0.28300715303E+02  0.10887222318E+03  0.81232453307E+02 0.  0.
        5    1    3    3  501    0  0.42361777869E+02 -0.25680027223E+02 -0.73693807148E+02  0.88920477025E+02  0.47000000000E+01 0. -1.
      -11    1    4    4    0    0 -0.16631521274E+02  0.51895771840E+01 -0.21772843761E+02  0.27885407235E+02  0.00000000000E+00 0.  1.
       12    1    4    4    0    0  0.14716166169E+02  0.16869743159E+01  0.61902032190E+02  0.63649611297E+02  0.00000000000E+00 0. -1.
       -5    1    5    5    0  503  0.25494564618E+02  0.29065308195E+02 -0.57489363597E+02  0.69439771690E+02  0.47000000000E+01 0.  1.
        1    1    6    6  502    0 -0.34904326333E+02  0.12390630780E+02 -0.23881126767E+02  0.44069807618E+02  0.00000000000E+00 0. -1.
       -2    1    6    6    0  502 -0.31036661049E+02 -0.22652463252E+02  0.52181842070E+02  0.64802415559E+02  0.00000000000E+00 0.  1.
</event>
<event>
12   0  0.1544783E-01  0.1774705E+03  0.7957747E-01  0.1175806E+00
       21   -1    0    0  504  503  0.00000000000E+00  0.00000000000E+00  0.50340007097E+03  0.50340007097E+03  0.00000000000E+00 0. -1.
       21   -1    0    0  501  504  0.00000000000E+00  0.00000000000E+00 -0.30832120203E+03  0.30832120203E+03  0.00000000000E+00 0. -1.
        6    2    1    2  501    0  0.36974359380E+01  0.36211198015E+02 -0.26484100217E+03  0.31874857852E+03  0.17359429135E+03 0.  0.
       24    2    3    3    0    0  0.60111742377E+02 -0.88441483946E+01 -0.18372161594E+03  0.21005173849E+03  0.81709608660E+02 0.  0.
       -6    2    1    2    0  503 -0.36974359380E+01 -0.36211198015E+02  0.45991987111E+03  0.49297269448E+03  0.17369763317E+03 0.  0.
      -24    2    5    5    0    0 -0.22152082543E+02 -0.52796728085E+02  0.45719879597E+03  0.46757292994E+03  0.79470098237E+02 0.  0.
        5    1    3    3  501    0 -0.56414306439E+02  0.45055346410E+02 -0.81119386225E+02  0.10869684003E+03  0.47000000000E+01 0. -1.
      -11    1    4    4    0    0  0.38987942920E+00 -0.35058185327E+02 -0.82452797004E+02  0.89597388903E+02  0.00000000000E+00 0.  1.
       12    1    4    4    0    0  0.59721862948E+02  0.26214036932E+02 -0.10126881894E+03  0.12045434959E+03  0.00000000000E+00 0. -1.
       -5    1    5    5    0  503  0.18454646605E+02  0.16585530070E+02  0.27210751371E+01  0.25399764545E+02  0.47000000000E+01 0.  1.
        3    1    6    6  502    0  0.19873858732E+02  0.10106942158E+02  0.10350708970E+03  0.10588124555E+03  0.00000000000E+00 0. -1.
       -4    1    6    6    0  502 -0.42025941275E+02 -0.62903670243E+02  0.35369170627E+03  0.36169168439E+03  0.00000000000E+00 0.  1.
</event>
<event>
12   0  0.1544783E-01  0.2102006E+03  0.7957747E-01  0.1147930E+00
       21   -1    0    0  504  503  0.00000000000E+00  0.00000000000E+00  0.35827125393E+03  0.35827125393E+03  0.00000000000E+00 0. -1.
       21   -1    0    0  501  504  0.00000000000E+00  0.00000000000E+00 -0.12290372437E+03  0.12290372437E+03  0.00000000000E+00 0. -1.
        6    2    1    2  501    0 -0.37961417411E+02  0.11162662766E+03  0.73942728879E+02  0.22282686731E+03  0.17401928751E+03 0.  0.
       24    2    3    3    0    0 -0.83173764531E+02  0.85183712833E+02  0.93262530915E+02  0.16680250808E+03  0.70363605581E+02 0.  0.
       -6    2    1    2    0  503  0.37961417411E+02 -0.11162662766E+03  0.16142480069E+03  0.25834811099E+03  0.16365881266E+03 0.  0.
      -24    2    5    5    0    0  0.18836018129E+02 -0.29011692287E+01  0.11678377404E+03  0.13917631287E+03  0.73269255635E+02 0.  0.
        5    1    3    3  501    0  0.45212347120E+02  0.26442914824E+02 -0.19319802036E+02  0.56024359231E+02  0.47000000000E+01 0. -1.
      -11    1    4    4    0    0  0.45262108473E+01  0.21106295499E+02 -0.28439033200E+01  0.21772691162E+02  0.00000000000E+00 0.  1.
       12    1    4    4    0    0 -0.87699975378E+02  0.64077417334E+02  0.96106434235E+02  0.14502981692E+03  0.00000000000E+00 0. -1.
       -5    1    5    5    0  503  0.19125399281E+02 -0.10872545843E+03  0.44641026643E+02  0.11917179812E+03  0.47000000000E+01 0.  1.
        3    1    6    6  502    0 -0.64790818768E+01  0.24868065068E+02  0.12999717020E+02  0.28799163266E+02  0.00000000000E+00 0. -1.
       -4    1    6    6    0  502  0.25315100006E+02 -0.27769234297E+02  0.10378405702E+03  0.11037714960E+03  0.00000000000E+00 0.  1.
</event>
<event>
12   0  0.1544783E-01  0.1837117E+03  0.7957747E-01  0.1170004E+00
       21   -1    0    0  501  503  0.00000000000E+00  0.00000000000E+00  0.25902140655E+03  0.25902140655E+03  0.00000000000E+00 0. -1.
       21   -1    0    0  503  504  0.00000000000E+00  0.00000000000E+00 -0.15445530637E+03  0.15445530637E+03  0.00000000000E+00 0. -1.
        6    2    1    2  501    0  0.60017611444E+02 -0.13648182976E+02  0.13475258781E+03  0.22730148454E+03  0.17239291856E+03 0.  0.
       24    2    3    3    0    0  0.49667946246E+02  0.41578641915E+02  0.28240938419E+02  0.10678617757E+03  0.80062780183E+02 0.  0.
       -6    2    1    2    0  504 -0.60017611444E+02  0.13648182976E+02 -0.30186487623E+02  0.18617522838E+03  0.17309420858E+03 0.  0.
      -24    2    5    5    0    0 -0.37399041613E+02 -0.84269990888E+01 -0.84502310458E+02  0.12315767547E+03  0.80978206489E+02 0.  0.
        5    1    3    3  501    0  0.10349665198E+02 -0.55226824891E+02  0.10651164939E+03  0.12051530696E+03  0.47000000000E+01 0. -1.
      -13    1    4    4    0    0  0.64068568464E+02  0.15967966911E+02 -0.63089388675E-02  0.66028459561E+02  0.00000000000E+00 0.  1.
       14    1    4    4    0    0 -0.14400622218E+02  0.25610675003E+02  0.28247247358E+02  0.40757718014E+02  0.00000000000E+00 0. -1.
       -5    1    5    5    0  504 -0.22618569831E+02  0.22075182065E+02  0.54315822835E+02  0.63017552909E+02  0.47000000000E+01 0.  1.
        3    1    6    6  502    0 -0.59098093679E+02 -0.18916530120E+02 -0.44148952219E+02  0.76154775098E+02  0.00000000000E+00 0. -1.
       -4    1    6    6    0  502  0.21699052066E+02  0.10489531031E+02 -0.40353358239E+02  0.47002900368E+02  0.00000000000E+00 0.  1.
</event>
<event>
12   0  0.1544783E-01  0.2711411E+03  0.7957747E-01  0.1108406E+00
       21   -1    0    0  504  503  0.00000000000E+00  0.00000000000E+00  0.67023259340E+03  0.67023259340E+03  0.00000000000E+00 0.  1.
       21   -1    0    0  501  504  0.00000000000E+00  0.00000000000E+00 -0.11323851048E+03  0.11323851048E+03  0.00000000000E+00 0.  1.
        6    2    1    2  501    0 -0.20737259997E+03 -0.24362007051E+02  0.20852713571E+03  0.34194342056E+03  0.17275657421E+03 0.  0.
       24    2    3    3    0    0 -0.15959058470E+03  0.40887755602E+02  0.10875586964E+03  0.21342475249E+03  0.81125350618E+02 0.  0.
       -6    2    1    2    0  503  0.20737259997E+03  0.24362007051E+02  0.34846694721E+03  0.44152768331E+03  0.17297566078E+03 0.  0.
      -24    2    5    5    0    0  0.61319649128E+02  0.29621745327E+02  0.70686367303E+02  0.12761165971E+03  0.81551370353E+02 0.  0.
        5    1    3    3  501    0 -0.47782015277E+02 -0.65249762653E+02  0.99771266065E+02  0.12851866807E+03  0.47000000000E+01 0. -1.
        4    1    4    4  502    0 -0.14454280466E+03  0.10097470739E+02  0.10501829240E+03  0.17895089559E+03  0.00000000000E+00 0. -1.
       -3    1    4    4    0  502 -0.15047780035E+02  0.30790284863E+02  0.37375772429E+01  0.34473856900E+02  0.00000000000E+00 0.  1.
       -5    1    5    5    0  503  0.14605295084E+03 -0.52597382759E+01  0.27778057991E+03  0.31391602360E+03  0.47000000000E+01 0.  1.
       11    1    6    6    0    0  0.32402453748E+02  0.37478659500E+02  0.81814821624E+02  0.95646400686E+02  0.00000000000E+00 0. -1.
      -12    1    6    6    0    0  0.28917195381E+02 -0.78569141736E+01 -0.11128454321E+02  0.31965259026E+02  0.00000000000E+00 0.  1.
</event>
<event>
12   0  0.1544783E-01  0.1804055E+03  0.7957747E-01  0.1173045E+00
       21   -1    0    0  501  503  0.00000000000E+00  0.00000000000E+00  0.56947351703E+02  0.56947351703E+02  0.00000000000E+00 0. -1.
       21   -1    0    0  503  504  0.00000000000E+00  0.00000000000E+00 -0.80241101071E+03  0.80241101071E+03  0.00000000000E+00 0. -1.
        6    2    1    2  501    0 -0.34260975659E+02  0.11966920679E+02 -0.13948263492E+03  0.22803848089E+03  0.17671763262E+03 0.  0.
       24    2    3    3    0    0  0.32061134685E+02 -0.39914837237E+02 -0.67674194724E+02  0.11727349902E+03  0.80945452940E+02 0.  0.
       -6    2    1    2    0  504  0.34260975659E+02 -0.11966920679E+02 -0.60598102409E+03  0.63131988152E+03  0.17330542291E+03 0.  0.
      -24    2    5    5    0    0  0.54009129026E+02 -0.41858301230E+02 -0.21962509998E+03  0.24327803548E+03  0.79245912220E+02 0.  0.
        5    1    3    3  501    0 -0.66322110344E+02  0.51881757916E+02 -0.71808440194E+02  0.11076498187E+03  0.47000000000E+01 0. -1.
        2    1    4    4  502    0  0.12504054989E+02 -0.60685565009E+02 -0.26990594252E+02  0.67583883949E+02  0.00000000000E+00 0. -1.
       -1    1    4    4    0  502  0.19557079696E+02  0.20770727772E+02 -0.40683600472E+02  0.49689615070E+02  0.00000000000E+00 0.  1.
       -5    1    5    5    0  504 -0.19748153367E+02  0.29891380551E+02 -0.38635592410E+03  0.38804184605E+03  0.47000000000E+01 0.  1.
       13    1    6    6    0    0  0.73750490802E+02 -0.22921015158E+02 -0.16548185770E+03  0.18261640960E+03  0.00000000000E+00 0. -1.
      -14    1    6    6    0    0 -0.19741361776E+02 -0.18937286072E+02 -0.54143242287E+02  0.60661625876E+02  0.00000000000E+00 0.  1.
</event>
<event>
12   0  0.1544783E-01  0.2106873E+03  0.7957747E-01  0.1147558E+00
       21   -1    0    0  501  503  0.00000000000E+00  0.00000000000E+00  0.11214017426E+03  0.11214017426E+03  0.00000000000E+00 0.  1.
       21   -1    0    0  503  504  0.00000000000E+00  0.00000000000E+00 -0.51418534442E+03  0.51418534442E+03  0.00000000000E+00 0.  1.
        6    2    1    2  501    0 -0.21465465884E+02  0.11596444086E+03 -0.49818011444E+02  0.21649706880E+03  0.17458702347E+03 0.  0.
       24    2    3    3    0    0 -0.47377006072E+02  0.13405720839E+03 -0.71242386574E+02  0.17802825024E+03  0.80016650837E+02 0.  0.
       -6    2    1    2    0  504  0.21465465884E+02 -0.11596444086E+03 -0.35222715871E+03  0.40982844988E+03  0.17316717134E+03 0.  0.
      -24    2    5    5    0    0  0.73112840603E+02 -0.61167657247E+02 -0.14991004543E+03  0.19390151053E+03  0.77703309535E+02 0.  0.
        5    1    3    3  501    0  0.25911540188E+02 -0.18092767533E+02  0.21424375130E+02  0.38468818563E+02  0.47000000000E+01 0. -1.
        2    1    4    4  502    0  0.22280703381E+02  0.39292849605E+02 -0.25210304780E+02  0.51729268700E+02  0.00000000000E+00 0. -1.
       -1    1    4    4    0  502 -0.69657709453E+02  0.94764358790E+02 -0.46032081794E+02  0.12629898154E+03  0.00000000000E+00 0.  1.
       -5    1    5    5    0  504 -0.51647374720E+02 -0.54796783615E+02 -0.20231711328E+03  0.21592693934E+03  0.47000000000E+01 0.  1.
       13    1    6    6    0    0  0.74462226166E+02 -0.75185161702E+02 -0.11509743351E+03  0.15634849173E+03  0.00000000000E+00 0. -1.
      -14    1    6    6    0    0 -0.13493855628E+01  0.14017504456E+02 -0.34812611925E+02  0.37553018808E+02  0.00000000000E+00 0.  1.
</event>
<event>
12   0  0.1544783E-01  0.2085580E+03  0.7957747E-01  0.1149193E+00
       21   -1    0    0  501  503  0.00000000000E+00  0.00000000000E+00  0.19481338228E+03  0.19481338228E+03  0.00000000000E+00 0. -1.
       21   -1    0    0  503  504  0.00000000000E+00  0.00000000000E+00 -0.37307028594E+03  0.37307028594E+03  0.00000000000E+00 0.  1.
        6    2    1    2  501    0  0.80917557409E+02 -0.71684380148E+02  0.92737579257E+02  0.22824698824E+03  0.17835393906E+03 0.  0.
       24    2    3    3    0    0  0.27874589037E+02 -0.19357991423E+02 -0.17997520034E+02  0.94695651048E+02  0.86554208760E+02 0.  0.
       -6    2    1    2    0  504 -0.80917557409E+02  0.71684380148E+02 -0.27099448291E+03  0.33963667998E+03  0.17386420899E+03 0.  0.
      -24    2    5    5    0    0 -0.10613251627E+03  0.36316865700E+02 -0.12146110579E+03  0.18385164828E+03  0.80408970965E+02 0.  0.
        5    1    3    3  501    0  0.53042968372E+02 -0.52326388725E+02  0.11073509929E+03  0.13355133719E+03  0.47000000000E+01 0. -1.
        4    1    4    4  502    0  0.59160832111E+01 -0.52689478424E+02 -0.89878021722E+01  0.53776963144E+02  0.00000000000E+00 0. -1.
       -3    1    4    4    0  502  0.21958505826E+02  0.33331487001E+02 -0.90097178615E+01  0.40918687903E+02  0.00000000000E+00 0.  1.
       -5    1    5    5    0  504  0.25214958862E+02  0.35367514448E+02 -0.14953337712E+03  0.15578503170E+03  0.47000000000E+01 0.  1.
       13    1    6    6    0    0  0.59598856379E+01 -0.10578176178E+02 -0.13410749345E+00  0.12142324032E+02  0.00000000000E+00 0. -1.
      -14    1    6    6    0    0 -0.11209240191E+03  0.46895041878E+02 -0.12132699830E+03  0.17170932425E+03  0.00000000000E+00 0.  1.
</event>
<event>
12   0  0.1544783E-01  0.1889518E+03  0.7957747E-01  0.1165325E+00
       -2   -1    0    0    0  501  0.00000000000E+00  0.00000000000E+00  0.56201664278E+03  0.56201664278E+03  0.00000000000E+00 0.  1.
        2   -1    0    0  502    0  0.00000000000E+00  0.00000000000E+00 -0.77898212295E+02  0.77898212295E+02  0.00000000000E+00 0. -1.
        6    2    1    2  502    0 -0.77831903932E+02  0.36794299373E+00  0.38130407581E+03  0.42634386387E+03  0.17412165685E+03 0.  0.
       24    2    3    3    0    0 -0.48165135774E+02  0.54133718603E+01  0.38467148077E+03  0.39570070964E+03  0.79105743094E+02 0.  0.
       -6    2    1    2    0  501  0.77831903932E+02 -0.36794299373E+00  0.10281435468E+03  0.21357099121E+03  0.17024639821E+03 0.  0.
      -24    2    5    5    0    0  0.18075470138E+02 -0.58837157278E+02  0.39476242608E+02  0.10857914943E+03  0.80265336621E+02 0.  0.
        5    1    3    3  502    0 -0.29666768158E+02 -0.50454288666E+01 -0.33674049621E+01  0.30643154237E+02  0.47000000000E+01 0. -1.
      -11    1    4    4    0    0 -0.53603988042E+02 -0.26869705185E+02  0.24117753924E+03  0.24851956468E+03  0.00000000000E+00 0.  1.
       12    1    4    4    0    0  0.54388522684E+01  0.32283077045E+02  0.14349394153E+03  0.14718114496E+03  0.00000000000E+00 0. -1.
       -5    1    5    5    0  501  0.59756433794E+02  0.58469214284E+02  0.63338112073E+02  0.10499184178E+03  0.47000000000E+01 0.  1.
        1    1    6    6  503    0  0.50081516623E+02 -0.33301482491E+02  0.21625186434E+02  0.63912406712E+02  0.00000000000E+00 0. -1.
       -2    1    6    6    0  503 -0.32006046485E+02 -0.25535674786E+02  0.17851056174E+02  0.44666742716E+02  0.00000000000E+00 0.  1.
</event>
<event>
12   0  0.1544783E-01  0.2056208E+03  0.7957747E-01  0.1151483E+00
       21   -1    0    0  504  503  0.00000000000E+00  0.00000000000E+00  0.56059645326E+03  0.56059645326E+03  0.00000000000E+00 0. -1.
       21   -1    0    0  501  504  0.00000000000E+00  0.00000000000E+00 -0.29579897799E+03  0.29579897799E+03  0.00000000000E+00 0. -1.
        6    2    1    2  501    0 -0.67669698446E+01 -0.10838472817E+03 -0.23888988417E+03  0.31235418941E+03  0.16942172737E+03 0.  0.
       24    2    3    3    0    0  0.34993669040E+02 -0.12065704521E+03 -0.14255328554E+03  0.20653646424E+03  0.80951790649E+02 0.  0.
       -6    2    1    2    0  503  0.67669698446E+01  0.10838472817E+03  0.50368735944E+03  0.54404124184E+03  0.17460491284E+03 0.  0.
      -24    2    5    5    0    0  0.51292804314E+02  0.12140106515E+03  0.33286206363E+03  0.36696683191E+03  0.80612231872E+02 0.  0.
        5    1    3    3  501    0 -0.41760638885E+02  0.12272317045E+02 -0.96336598627E+02  0.10581772517E+03  0.47000000000E+01 0. -1.
      -13    1    4    4    0    0  0.25303300337E+02 -0.15366378601E+01 -0.80290020958E+01  0.26591034928E+02  0.00000000000E+00 0.  1.
       14    1    4    4    0    0  0.96903687031E+01 -0.11912040735E+03 -0.13452428345E+03  0.17994542931E+03  0.00000000000E+00 0. -1.
       -5    1    5    5    0  503 -0.44525834469E+02 -0.13016336981E+02  0.17082529581E+03  0.17707440993E+03  0.47000000000E+01 0.  1.
        3    1    6    6  502    0 -0.64949960243E+01  0.73013796648E+02  0.21416190499E+03  0.22635927421E+03  0.00000000000E+00 0. -1.
       -4    1    6    6    0  502  0.57787800338E+02  0.48387268500E+02  0.11870015864E+03  0.14060755770E+03  0.00000000000E+00 0.  1.
</event>
<event>
12   0  0.1544783E-01  0.3228562E+03  0.7957747E-01  0.1082840E+00
       -1   -1    0    0    0  501  0.00000000000E+00  0.00000000000E+00  0.44963936830E+03  0.44963936830E+03  0.00000000000E+00 0. -1.
        1   -1    0    0  502    0  0.00000000000E+00  0.00000000000E+00 -0.24576931173E+03  0.24576931173E+03  0.00000000000E+00 0.  1.
        6    2    1    2  502    0  0.13150900394E+03 -0.23850869233E+03  0.18624050785E+02  0.32172600121E+03  0.17023439768E+03 0.  0.
       24    2    3    3    0    0  0.25403024962E+02 -0.36501593023E+02  0.16471163023E+01  0.92868724183E+02  0.81512005060E+02 0.  0.
       -6    2    1    2    0  501 -0.13150900394E+03  0.23850869233E+03  0.18524600578E+03  0.37368267881E+03  0.17646996162E+03 0.  0.
      -24    2    5    5    0    0 -0.10025896035E+03  0.63758366283E+02  0.11233014822E+03  0.18171118624E+03  0.79271083023E+02 0.  0.
        5    1    3    3  502    0  0.10610597898E+03 -0.20200709931E+03  0.16976934483E+02  0.22885727703E+03  0.47000000000E+01 0. -1.
      -11    1    4    4    0    0  0.87496662066E+01 -0.61408433845E+02 -0.48258453570E+01  0.62216084652E+02  0.00000000000E+00 0.  1.
       12    1    4    4    0    0  0.16653358756E+02  0.24906840822E+02  0.64729616593E+01  0.30652639531E+02  0.00000000000E+00 0. -1.
       -5    1    5    5    0  501 -0.31250043592E+02  0.17475032605E+03  0.72915857566E+02  0.19197149258E+03  0.47000000000E+01 0.  1.
        1    1    6    6  503    0 -0.51569510074E+02  0.75166191302E+02  0.85413878021E+02  0.12491957910E+03  0.00000000000E+00 0. -1.
       -2    1    6    6    0  503 -0.48689450276E+02 -0.11407825019E+02  0.26916270195E+02  0.56791607136E+02  0.00000000000E+00 0.  1.
</event>
<event>
12   0  0.1544783E-01  0.2074564E+03  0.7957747E-01  0.1150047E+00
       21   -1    0    0  501  503  0.00000000000E+00  0.00000000000E+00  0.40001708605E+03  0.40001708605E+03  0.00000000000E+00 0.  1.
       21   -1    0    0  503  504  0.00000000000E+00  0.00000000000E+00 -0.14355472228E+03  0.14355472228E+03  0.00000000000E+00 0.  1.
        6    2    1    2  501    0 -0.87473654781E+02  0.74346906220E+02  0.26497183684E+03  0.33594097793E+03  0.17166002327E+03 0.  0.
       24    2    3    3    0    0 -0.11210022328E+03  0.44281204623E+02  0.26016569684E+03  0.29649984115E+03  0.75489607543E+02 0.  0.
       -6    2    1    2    0  504  0.87473654781E+02 -0.74346906220E+02 -0.85094730751E+01  0.20763083040E+03  0.17279770790E+03 0.  0.
      -24    2    5    5    0    0  0.10527299979E+03 -0.59487985694E+02 -0.55674212746E+02  0.15486524626E+03  0.79135337273E+02 0.  0.
        5    1    3    3  501    0  0.24626568500E+02  0.30065701597E+02  0.48061399978E+01  0.39441136777E+02  0.47000000000E+01 0. -1.
        2    1    4    4  502    0 -0.51580110149E+02 -0.27653946765E+01  0.17239700864E+03  0.17996911890E+03  0.00000000000E+00 0. -1.
       -1    1    4    4    0  502 -0.60520113132E+02  0.47046599300E+02  0.87768688206E+02  0.11653072225E+03  0.00000000000E+00 0.  1.
       -5    1    5    5    0  504 -0.17799345014E+02 -0.14858920527E+02  0.47164739671E+02  0.52765584147E+02  0.47000000000E+01 0.  1.
       11    1    6    6    0    0  0.15472572357E+02  0.18876739436E+02 -0.16276965704E+02  0.29337201632E+02  0.00000000000E+00 0. -1.
      -12    1    6    6    0    0  0.89800427437E+02 -0.78364725130E+02 -0.39397247042E+02  0.12552804462E+03  0.00000000000E+00 0.  1.
</event>
<event>
12   0  0.1544783E-01  0.1807659E+03  0.7957747E-01  0.1172710E+00
       21   -1    0    0  501  503  0.00000000000E+00  0.00000000000E+00  0.21169943726E+03  0.21169943726E+03  0.00000000000E+00 0.  1.
       21   -1    0    0  503  504  0.00000000000E+00  0.00000000000E+00 -0.16057751103E+03  0.16057751103E+03  0.00000000000E+00 0.  1.
        6    2    1    2  501    0  0.15257655305E+02 -0.51242586514E+02  0.62630876907E+02  0.19130850988E+03  0.17267808342E+03 0.  0.
       24    2    3    3    0    0 -0.19338458077E+02 -0.23976292152E+01  0.92611213234E+02  0.12419940856E+03  0.80429669166E+02 0.  0.
       -6    2    1    2    0  504 -0.15257655305E+02  0.51242586514E+02 -0.11508950672E+02  0.18096843841E+03  0.17250658259E+03 0.  0.
      -24    2    5    5    0    0 -0.28609280402E+02  0.82321740956E+02 -0.51218835865E+02  0.12859339936E+03  0.79482911698E+02 0.  0.
        5    1    3    3  501    0  0.34596113382E+02 -0.48844957299E+02 -0.29980336328E+02  0.67109101327E+02  0.47000000000E+01 0. -1.
        4    1    4    4  502    0 -0.43844532031E+02  0.62040104328E+01  0.22994215372E+02  0.49895557669E+02  0.00000000000E+00 0. -1.
       -3    1    4    4    0  502  0.24506073954E+02 -0.86016396479E+01  0.69616997862E+02  0.74303850887E+02  0.00000000000E+00 0.  1.
       -5    1    5    5    0  504  0.13351625098E+02 -0.31079154443E+02  0.39709885193E+02  0.52375039052E+02  0.47000000000E+01 0.  1.
       11    1    6    6    0    0 -0.26166445290E+01  0.26358492859E+01  0.18932015993E+02  0.19292894019E+02  0.00000000000E+00 0. -1.
      -12    1    6    6    0    0 -0.25992635873E+02  0.79685891671E+02 -0.70150851859E+02  0.10930050534E+03  0.00000000000E+00 0.  1.
</event>
<event>
12   0  0.1544783E-01  0.2110820E+03  0.7957747E-01  0.1147257E+00
        1   -1    0    0  502    0  0.00000000000E+00  0.00000000000E+00  0.53240926902E+03  0.53240926902E+03  0.00000000000E+00 0. -1.
       -1   -1    0    0    0  501  0.00000000000E+00  0.00000000000E+00 -0.94344052862E+02  0.94344052862E+02  0.00000000000E+00 0.  1.
        6    2    1    2  502    0 -0.24060161776E+02  0.12136379885E+03  0.11550266341E+03  0.24230127315E+03  0.17338102161E+03 0.  0.
       24    2    3    3    0    0  0.28900209789E+02  0.25296262063E+02  0.18511104987E+02  0.95797945581E+02  0.85787308907E+02 0.  0.
       -6    2    1    2    0  501  0.24060161776E+02 -0.12136379885E+03  0.32256255275E+03  0.38445204874E+03  0.16866746659E+03 0.  0.
      -24    2    5    5    0    0  0.67740900669E+02 -0.35126122510E+02  0.18775003368E+03  0.21849588263E+03  0.81655994723E+02 0.  0.
        5    1    3    3  502    0 -0.52960371565E+02  0.96067536791E+02  0.96991558427E+02  0.14650332756E+03  0.47000000000E+01 0. -1.
      -11    1    4    4    0    0  0.30622138821E+02 -0.22379275287E+02  0.28016343643E+02  0.47153609188E+02  0.00000000000E+00 0.  1.
       12    1    4    4    0    0 -0.17219290320E+01  0.47675537350E+02 -0.95052386560E+01  0.48644336393E+02  0.00000000000E+00 0. -1.
       -5    1    5    5    0  501 -0.43680738893E+02 -0.86237676345E+02  0.13481251907E+03  0.16595616610E+03  0.47000000000E+01 0.  1.
        3    1    6    6  503    0  0.46474546127E+02 -0.46480280421E+02  0.18228952502E+03  0.19377763245E+03  0.00000000000E+00 0. -1.
       -4    1    6    6    0  503  0.21266354542E+02  0.11354157911E+02  0.54605086645E+01  0.24718250186E+02  0.00000000000E+00 0.  1.
</event>
<event>
12   0  0.1544783E-01  0.1943779E+03  0.7957747E-01  0.1160652E+00
       21   -1    0    0  501  503  0.00000000000E+00  0.00000000000E+00  0.17111610497E+03  0.17111610497E+03  0.00000000000E+00 0.  1.
       21   -1    0    0  503  504  0.00000000000E+00  0.00000000000E+00 -0.23755155650E+03  0.23755155650E+03  0.00000000000E+00 0.  1.
        6    2    1    2  501    0  0.74610247554E+02  0.48514648915E+02  0.21576159902E+02  0.19557174042E+03  0.17280745000E+03 0.  0.
       24    2    3    3    0    0  0.10861586267E+03  0.12364998809E+02  0.41316049643E+02  0.14195334517E+03  0.80581867858E+02 0.  0.
       -6    2    1    2    0  504 -0.74610247554E+02 -0.48514648915E+02 -0.88011611429E+02  0.21309592105E+03  0.17246294564E+03 0.  0.
      -24    2    5    5    0    0 -0.17229031585E+02  0.24188963746E+02  0.13995994700E+01  0.84274828539E+02  0.78856466762E+02 0.  0.
        5    1    3    3  501    0 -0.34005615119E+02  0.36149650106E+02 -0.19739889741E+02  0.53618395252E+02  0.47000000000E+01 0. -1.
        4    1    4    4  502    0  0.86396685914E+02 -0.12235733001E+02 -0.21545769443E+01  0.87285409438E+02  0.00000000000E+00 0. -1.
       -3    1    4    4    0  502  0.22219176760E+02  0.24600731811E+02  0.43470626587E+02  0.54667935734E+02  0.00000000000E+00 0.  1.
       -5    1    5    5    0  504 -0.57381215969E+02 -0.72703612661E+02 -0.89411210899E+02  0.12882109251E+03  0.47000000000E+01 0.  1.
       11    1    6    6    0    0  0.72621911670E+01  0.37039843384E+01 -0.34953115195E+02  0.35891213164E+02  0.00000000000E+00 0. -1.
      -12    1    6    6    0    0 -0.24491222752E+02  0.20484979408E+02  0.36352714665E+02  0.48383615375E+02  0.00000000000E+00 0.  1.
</event>
<event>
12   0  0.1544783E-01  0.1956800E+03  0.7957747E-01  0.1159556E+00
       21   -1    0    0  504  503  0.00000000000E+00  0.00000000000E+00  0.10339898919E+03  0.10339898919E+03  0.00000000000E+00 0.  1.
       21   -1    0    0  501  504  0.00000000000E+00  0.00000000000E+00 -0.94932247323E+03  0.94932247323E+03  0.00000000000E+00 0.  1.
        6    2    1    2  501    0 -0.42212591866E+02  0.80201730573E+02 -0.83457329975E+03  0.85671256237E+03  0.17096666744E+03 0.  0.
       24    2    3    3    0    0  0.16789867444E+02  0.10011603517E+03 -0.51646860941E+03  0.53253583010E+03  0.80928769216E+02 0.  0.
       -6    2    1    2    0  503  0.42212591866E+02 -0.80201730573E+02 -0.11350184290E+02  0.19600890005E+03  0.17342560860E+03 0.  0.
      -24    2    5    5    0    0  0.21577779741E+02  0.28743154616E+02 -0.55419453338E+01  0.84875605672E+02  0.76690193404E+02 0.  0.
        5    1    3    3  501    0 -0.59002459310E+02 -0.19914304601E+02 -0.31810469033E+03  0.32417673227E+03  0.47000000000E+01 0. -1.
      -11    1    4    4    0    0  0.47927116699E+02  0.42852347290E+02 -0.27607470680E+03  0.28346177153E+03  0.00000000000E+00 0.  1.
       12    1    4    4    0    0 -0.31137249256E+02  0.57263687884E+02 -0.24039390262E+03  0.24907405858E+03  0.00000000000E+00 0. -1.
       -5    1    5    5    0  503  0.20634812125E+02 -0.10894488519E+03 -0.58082389558E+01  0.11113329438E+03  0.47000000000E+01 0.  1.
        3    1    6    6  502    0 -0.27331934591E+02  0.41796965118E+01  0.74247260836E+01  0.28629199585E+02  0.00000000000E+00 0. -1.
       -4    1    6    6    0  502  0.48909714332E+02  0.24563458104E+02 -0.12966671417E+02  0.56246406087E+02  0.00000000000E+00 0.  1.
</event>
<event>
12   0  0.1544783E-01  0.1862013E+03  0.7957747E-01  0.1167760E+00
       21   -1    0    0  504  503  0.00000000000E+00  0.00000000000E+00  0.13295778246E+03  0.13295778246E+03  0.00000000000E+00 0. -1.
       21   -1    0    0  501  504  0.00000000000E+00  0.00000000000E+00 -0.26496441664E+03  0.26496441664E+03  0.00000000000E+00 0. -1.
        6    2    1    2  501    0 -0.50628976060E+02  0.44785378869E+02 -0.93476156176E+02  0.20777616718E+03  0.17281238526E+03 0.  0.
       24    2    3    3    0    0 -0.63450044083E+02  0.64901552364E+02 -0.12277867533E+03  0.16970035005E+03  0.74064067535E+02 0.  0.
       -6    2    1    2    0  503  0.50628976060E+02 -0.44785378869E+02 -0.38530477998E+02  0.19014603192E+03  0.17349896928E+03 0.  0.
      -24    2    5    5    0    0  0.99514055040E+02 -0.47355447791E+02 -0.32066089723E+02  0.14054528074E+03  0.81111998147E+02 0.  0.
        5    1    3    3  501    0  0.12821068023E+02 -0.20116173495E+02  0.29302519153E+02  0.38075817129E+02  0.47000000000E+01 0. -1.
      -11    1    4    4    0    0  0.13148443526E+02  0.86156249375E+01 -0.42388044269E+02  0.45209035127E+02  0.00000000000E+00 0.  1.
       12    1    4    4    0    0 -0.76598487608E+02  0.56285927426E+02 -0.80390631060E+02  0.12449131493E+03  0.00000000000E+00 0. -1.
       -5    1    5    5    0  503 -0.48885078980E+02  0.25700689218E+01 -0.64643882750E+01  0.49600751173E+02  0.47000000000E+01 0.  1.
        1    1    6    6  502    0  0.43417087440E+02 -0.41990914713E+02  0.20196460905E+02  0.63688126314E+02  0.00000000000E+00 0. -1.
       -2    1    6    6    0  502  0.56096967600E+02 -0.53645330772E+01 -0.52262550628E+02  0.76857154430E+02  0.00000000000E+00 0.  1.
</event>
<event>
12   0  0.1544783E-01  0.1940160E+03  0.7957747E-01  0.1160959E+00
       21   -1    0    0  501  503  0.00000000000E+00  0.00000000000E+00  0.92946652614E+02  0.92946652614E+02  0.00000000000E+00 0. -1.
       21   -1    0    0  503  504  0.00000000000E+00  0.00000000000E+00 -0.47813290392E+03  0.47813290392E+03  0.00000000000E+00 0. -1.
        6    2    1    2  501    0  0.81008190808E+02  0.29700087537E+02 -0.80474752394E+02  0.21004383578E+03  0.17377515645E+03 0.  0.
       24    2    3    3    0    0  0.11126228399E+03  0.15348881691E+02 -0.78853403553E+02  0.17619142028E+03  0.11050191546E+03 0.  0.
       -6    2    1    2    0  504 -0.81008190808E+02 -0.29700087537E+02 -0.30471149892E+03  0.36103572076E+03  0.17335879531E+03 0.  0.
      -24    2    5    5    0    0 -0.11360406255E+03 -0.35401168079E+02 -0.19691189116E+03  0.24817368726E+03  0.93041713417E+02 0.  0.
        5    1    3    3  501    0 -0.30254093181E+02  0.14351205846E+02 -0.16213488402E+01  0.33852415505E+02  0.47000000000E+01 0. -1.
      -13    1    4    4    0    0  0.15216386220E+02  0.16182450760E+02 -0.76983094036E+02  0.80123697428E+02  0.00000000000E+00 0.  1.
       14    1    4    4    0    0  0.96045897769E+02 -0.83356906918E+00 -0.18703095179E+01  0.96067722849E+02  0.00000000000E+00 0. -1.
       -5    1    5    5    0  504  0.32595871744E+02  0.57010805420E+01 -0.10779960775E+03  0.11286203350E+03  0.47000000000E+01 0.  1.
        3    1    6    6  502    0 -0.39224285458E+02  0.88072512712E+01 -0.13739285513E+03  0.14315344525E+03  0.00000000000E+00 0. -1.
       -4    1    6    6    0  502 -0.74379777094E+02 -0.44208419350E+02 -0.59519036034E+02  0.10502024201E+03  0.00000000000E+00 0.  1.
</event>
<event>
12   0  0.1544783E-01  0.1982020E+03  0.7957747E-01  0.1157459E+00
       21   -1    0    0  501  503  0.00000000000E+00  0.00000000000E+00  0.19997709170E+03  0.19997709170E+03  0.00000000000E+00 0. -1.
       21   -1    0    0  503  504  0.00000000000E+00  0.00000000000E+00 -0.19560819895E+03  0.19560819895E+03  0.00000000000E+00 0.  1.
        6    2    1    2  501    0  0.59795066889E+02  0.74122759060E+02 -0.81970835771E+01  0.19837142331E+03  0.17382288679E+03 0.  0.
       24    2    3    3    0    0 -0.34642750066E+02  0.34510934431E+02  0.19238015518E+02  0.92247097243E+02  0.75817550615E+02 0.  0.
       -6    2    1    2    0  504 -0.59795066889E+02 -0.74122759060E+02  0.12565976326E+02  0.19721386733E+03  0.17223754606E+03 0.  0.
      -24    2    5    5    0    0  0.20859796716E+02 -0.36818571535E+02  0.49198788135E+02  0.10098049302E+03  0.77367957764E+02 0.  0.
        5    1    3    3  501    0  0.94437816955E+02  0.39611824629E+02 -0.27435099095E+02  0.10612432607E+03  0.47000000000E+01 0. -1.
        2    1    4    4  502    0 -0.26097906349E+02  0.56652189755E+02  0.25989807589E+02  0.67572490100E+02  0.00000000000E+00 0. -1.
       -1    1    4    4    0  502 -0.85448437167E+01 -0.22141255324E+02 -0.67517920708E+01  0.24674607143E+02  0.00000000000E+00 0.  1.
       -5    1    5    5    0  504 -0.80654863605E+02 -0.37304187525E+02 -0.36632811809E+02  0.96233374310E+02  0.47000000000E+01 0.  1.
       11    1    6    6    0    0  0.36929530129E+02 -0.44883606129E+02  0.11551710832E+02  0.59260191679E+02  0.00000000000E+00 0. -1.
      -12    1    6    6    0    0 -0.16069733413E+02  0.80650345935E+01  0.37647077303E+02  0.41720301346E+02  0.00000000000E+00 0.  1.
</event>
<event>
12   0  0.1544783E-01  0.2411623E+03  0.7957747E-01  0.1126253E+00
       21   -1    0    0  504  503  0.00000000000E+00  0.00000000000E+00  0.60744532606E+03  0.60744532606E+03  0.00000000000E+00 0.  1.
       21   -1    0    0  501  504  0.00000000000E+00  0.00000000000E+00 -0.29673346675E+03  0.29673346675E+03  0.00000000000E+00 0.  1.
        6    2    1    2  501    0  0.36109784987E+02 -0.14554303384E+03 -0.21945805549E+03  0.32606916745E+03  0.18887184167E+03 0.  0.
       24    2    3    3    0    0  0.99319553230E+02 -0.98175106897E+02 -0.14014591363E+03  0.21403479259E+03  0.81653475527E+02 0.  0.
       -6    2    1    2    0  503 -0.36109784987E+02  0.14554303384E+03  0.53016991479E+03  0.57810962536E+03  0.17505401769E+03 0.  0.
      -24    2    5    5    0    0  0.45827384335E+02  0.81839391111E+02  0.23799293072E+03  0.26801071560E+03  0.79945440831E+02 0.  0.
        5    1    3    3  501    0 -0.63209768242E+02 -0.47367926939E+02 -0.79312141863E+02  0.11203437486E+03  0.47000000000E+01 0. -1.
      -13    1    4    4    0    0  0.34379985827E+01 -0.57096361180E+02 -0.43886574826E+02  0.72096086886E+02  0.00000000000E+00 0.  1.
       14    1    4    4    0    0  0.95881554647E+02 -0.41078745716E+02 -0.96259338799E+02  0.14193870571E+03  0.00000000000E+00 0. -1.
       -5    1    5    5    0  503 -0.81937169322E+02  0.63703642724E+02  0.29217698407E+03  0.31009890976E+03  0.47000000000E+01 0.  1.
        1    1    6    6  502    0  0.14541464752E+02 -0.15262115777E+02  0.45866655599E+02  0.50479069633E+02  0.00000000000E+00 0. -1.
       -2    1    6    6    0  502  0.31285919583E+02  0.97101506889E+02  0.19212627512E+03  0.21753164596E+03  0.00000000000E+00 0.  1.
</event>
<event>
12   0  0.1544783E-01  0.2159881E+03  0.7957747E-01  0.1143579E+00
        2   -1    0    0  502    0  0.00000000000E+00  0.00000000000E+00  0.55258314319E+03  0.55258314319E+03  0.00000000000E+00 0. -1.
       -2   -1    0    0    0  501  0.00000000000E+00  0.00000000000E+00 -0.84558845686E+02  0.84558845686E+02  0.00000000000E+00 0.  1.
        6    2    1    2  502    0  0.32339025025E+02 -0.12768238938E+03  0.24583125504E+03  0.32669981484E+03  0.17015039807E+03 0.  0.
       24    2    3    3    0    0  0.29570488161E+02 -0.59837608694E+02  0.42421892602E+02  0.11220497157E+03  0.79595134827E+02 0.  0.
       -6    2    1    2    0  501 -0.32339025025E+02  0.12768238938E+03  0.22219304246E+03  0.31044217403E+03  0.17220914669E+03 0.  0.
      -24    2    5    5    0    0  0.41030418281E+02  0.69568198430E+02  0.16435809824E+03  0.20031812955E+03  0.81182135418E+02 0.  0.
        5    1    3    3  502    0  0.27685368641E+01 -0.67844780687E+02  0.20340936244E+03  0.21449484327E+03  0.47000000000E+01 0. -1.
      -13    1    4    4    0    0  0.85516877781E+01 -0.47566465922E+02  0.63643504543E+02  0.79913676643E+02  0.00000000000E+00 0.  1.
       14    1    4    4    0    0  0.21018800383E+02 -0.12271142772E+02 -0.21221611941E+02  0.32291294924E+02  0.00000000000E+00 0. -1.
       -5    1    5    5    0  501 -0.73369443306E+02  0.58114190951E+02  0.57834944222E+02  0.11012404449E+03  0.47000000000E+01 0.  1.
        3    1    6    6  503    0 -0.10231004740E+02  0.44688239587E+02  0.31124872679E+02  0.55411821073E+02  0.00000000000E+00 0. -1.
       -4    1    6    6    0  503  0.51261423021E+02  0.24879958843E+02  0.13323322556E+03  0.14490630847E+03  0.00000000000E+00 0.  1.
</event>
<event>
12   0  0.1544783E-01  0.1761926E+03  0.7957747E-01  0.1177026E+00
       21   -1    0    0  501  503  0.00000000000E+00  0.00000000000E+00  0.38223881001E+03  0.38223881001E+03  0.00000000000E+00 0. -1.
       21   -1    0    0  503  504  0.00000000000E+00  0.00000000000E+00 -0.22758922228E+03  0.22758922228E+03  0.00000000000E+00 0. -1.
        6    2    1    2  501    0 -0.15351814495E+02 -0.24575343599E+02  0.32219435461E+03  0.36722341107E+03  0.17379357232E+03 0.  0.
       24    2    3    3    0    0 -0.14848518518E+02  0.96284223799E+01  0.64035570520E+02  0.10676573944E+03  0.83577412055E+02 0.  0.
       -6    2    1    2    0  504  0.15351814495E+02  0.24575343599E+02 -0.16754476688E+03  0.24260462122E+03  0.17304949467E+03 0.  0.
      -24    2    5    5    0    0 -0.56897006393E+02  0.17417427616E+01 -0.11202941797E+03  0.14855511610E+03  0.79232121180E+02 0.  0.
        5    1    3    3  501    0 -0.50329597636E+00 -0.34203765979E+02  0.25815878409E+03  0.26045767164E+03  0.47000000000E+01 0. -1.
        2    1    4    4  502    0 -0.30905545936E+02 -0.20261971454E+02  0.31820692499E+01  0.37092126139E+02  0.00000000000E+00 0. -1.
       -1    1    4    4    0  502  0.16057027418E+02  0.29890393834E+02  0.60853501270E+02  0.69673613297E+02  0.00000000000E+00 0.  1.
       -5    1    5    5    0  504  0.72248820888E+02  0.22833600837E+02 -0.55515348916E+02  0.94049505114E+02  0.47000000000E+01 0.  1.
       13    1    6    6    0    0 -0.24840875837E+02 -0.35369707680E+02 -0.28750634471E+02  0.51910348835E+02  0.00000000000E+00 0. -1.
      -14    1    6    6    0    0 -0.32056130556E+02  0.37111450442E+02 -0.83278783495E+02  0.96644767269E+02  0.00000000000E+00 0.  1.
</event>
<event>
12   0  0.1544783E-01  0.1804714E+03  0.7957747E-01  0.1172984E+00
       21   -1    0    0  501  503  0.00000000000E+00  0.00000000000E+00  0.17027650616E+03  0.17027650616E+03  0.00000000000E+00 0.  1.
       21   -1    0    0  503  504  0.00000000000E+00  0.00000000000E+00 -0.19012301345E+03  0.19012301345E+03  0.00000000000E+00 0.  1.
        6    2    1    2  501    0  0.47937060143E+02 -0.30876100199E+01 -0.44133026900E+01  0.18052539029E+03  0.17396104227E+03 0.  0.
       24    2    3    3    0    0  0.46034571883E+01  0.27999106271E+02  0.54344629645E+02  0.10103470098E+03  0.80308967495E+02 0.  0.
       -6    2    1    2    0  504 -0.47937060143E+02  0.30876100199E+01 -0.15433204598E+02  0.17987412933E+03  0.17265289898E+03 0.  0.
      -24    2    5    5    0    0  0.40336327313E+02  0.23185993346E+02  0.12810191938E+02  0.84921955086E+02  0.69878665197E+02 0.  0.
        5    1    3    3  501    0  0.43333602955E+02 -0.31086716290E+02 -0.58757932335E+02  0.79490689311E+02  0.47000000000E+01 0. -1.
        4    1    4    4  502    0 -0.16414757619E+02  0.48971985734E+02  0.19385616818E+02  0.55167941722E+02  0.00000000000E+00 0. -1.
       -3    1    4    4    0  502  0.21018214807E+02 -0.20972879464E+02  0.34959012827E+02  0.45866759255E+02  0.00000000000E+00 0.  1.
       -5    1    5    5    0  504 -0.88273387457E+02 -0.20098383326E+02 -0.28243396536E+02  0.94952174242E+02  0.47000000000E+01 0.  1.
       13    1    6    6    0    0  0.33465669055E+02 -0.34535312739E+01 -0.22265738745E+02  0.40344033083E+02  0.00000000000E+00 0. -1.
      -14    1    6    6    0    0  0.68706582587E+01  0.26639524619E+02  0.35075930683E+02  0.44577922003E+02  0.00000000000E+00 0.  1.
</event>
<event>
12   0  0.1544783E-01  0.2746247E+03  0.7957747E-01  0.1106495E+00
       21   -1    0    0  504  503  0.00000000000E+00  0.00000000000E+00  0.47149503836E+03  0.47149503836E+03  0.00000000000E+00 0.  1.
       21   -1    0    0  501  504  0.00000000000E+00  0.00000000000E+00 -0.21924267114E+03  0.21924267114E+03  0.00000000000E+00 0. -1.
        6    2    1    2  501    0 -0.16466481770E+03  0.11435069022E+03 -0.60276205135E+02  0.28116173332E+03  0.18769154706E+03 0.  0.
       24    2    3    3    0    0 -0.21296273151E+02  0.82677770352E+02 -0.64796078691E+02  0.13419155718E+03  0.80744642196E+02 0.  0.
       -6    2    1    2    0  503  0.16466481770E+03 -0.11435069022E+03  0.31252857236E+03  0.40957597618E+03  0.17288085254E+03 0.  0.
      -24    2    5    5    0    0  0.88108151580E+02 -0.40977332424E+01  0.20679320417E+03  0.23864120576E+03  0.80039727656E+02 0.  0.
        5    1    3    3  501    0 -0.14336854455E+03  0.31672919872E+02  0.45198735561E+01  0.14697017614E+03  0.47000000000E+01 0. -1.
      -11    1    4    4    0    0  0.30636457432E+02  0.32480863352E+02 -0.18068419550E+02  0.48167071669E+02  0.00000000000E+00 0.  1.
       12    1    4    4    0    0 -0.51932730583E+02  0.50196907000E+02 -0.46727659140E+02  0.86024485508E+02  0.00000000000E+00 0. -1.
       -5    1    5    5    0  503  0.76556666119E+02 -0.11025295698E+03  0.10573536819E+03  0.17093477042E+03  0.47000000000E+01 0.  1.
        1    1    6    6  502    0  0.23035708115E+02  0.20249719065E+02  0.14007676208E+02  0.33718095488E+02  0.00000000000E+00 0. -1.
       -2    1    6    6    0  502  0.65072443465E+02 -0.24347452307E+02  0.19278552796E+03  0.20492311027E+03  0.00000000000E+00 0.  1.
</event>
<event>
12   0  0.1544783E-01  0.2122987E+03  0.7957747E-01  0.1146335E+00
       21   -1    0    0  504  503  0.00000000000E+00  0.00000000000E+00  0.93808928230E+03  0.93808928230E+03  0.00000000000E+00 0.  1.
       21   -1    0    0  501  504  0.00000000000E+00  0.00000000000E+00 -0.48047970845E+02  0.48047970845E+02  0.00000000000E+00 0.  1.
        6    2    1    2  501    0 -0.12063014045E+03 -0.27761599955E+01  0.50471690851E+03  0.54619903655E+03  0.17039627913E+03 0.  0.
       24    2    3    3    0    0 -0.10423456488E+03 -0.62465563468E+02  0.32968748748E+03  0.36048681829E+03  0.80561253861E+02 0.  0.
       -6    2    1    2    0  503  0.12063014045E+03  0.27761599955E+01  0.38532440294E+03  0.43993821659E+03  0.17467513007E+03 0.  0.
      -24    2    5    5    0    0  0.10996606906E+03  0.38555479499E+02  0.37810774447E+03  0.40162304620E+03  0.68967698709E+02 0.  0.
        5    1    3    3  501    0 -0.16395575567E+02  0.59689403472E+02  0.17502942103E+03  0.18571221826E+03  0.47000000000E+01 0. -1.
      -13    1    4    4    0    0 -0.46533729166E+02 -0.17475333046E+02  0.23824308405E+03  0.24337325718E+03  0.00000000000E+00 0.  1.
       14    1    4    4    0    0 -0.57700835719E+02 -0.44990230421E+02  0.91444403432E+02  0.11711356111E+03  0.00000000000E+00 0. -1.
       -5    1    5    5    0  503  0.10664071391E+02 -0.35779319504E+02  0.72166584712E+01  0.38315170393E+02  0.47000000000E+01 0.  1.
        3    1    6    6  502    0  0.58915689675E+02 -0.13997560265E+02  0.20203421096E+03  0.21091423039E+03  0.00000000000E+00 0. -1.
       -4    1    6    6    0  502  0.51050379386E+02  0.52553039764E+02  0.17607353351E+03  0.19070881581E+03  0.00000000000E+00 0.  1.
</event>
<event>
12   0  0.1544783E-01  0.1905493E+03  0.7957747E-01  0.1163932E+00
       21   -1    0    0  501  503  0.00000000000E+00  0.00000000000E+00  0.73003377844E+03  0.73003377844E+03  0.00000000000E+00 0. -1.
       21   -1    0    0  503  504  0.00000000000E+00  0.00000000000E+00 -0.10789694152E+03  0.10789694152E+03  0.00000000000E+00 0. -1.
        6    2    1    2  501    0  0.77871808502E+02 -0.55590359794E+01  0.61898341290E+03  0.64735535978E+03  0.17272398489E+03 0.  0.
       24    2    3    3    0    0 -0.25496402732E+00  0.24120514861E+02  0.19678222069E+03  0.21693625585E+03  0.88069475307E+02 0.  0.
       -6    2    1    2    0  504 -0.77871808502E+02  0.55590359794E+01  0.31534240178E+01  0.19057536018E+03  0.17382204228E+03 0.  0.
      -24    2    5    5    0    0 -0.49615161639E+02 -0.59001197729E+02 -0.25106488242E+02  0.11450187919E+03  0.80855049244E+02 0.  0.
        5    1    3    3  501    0  0.78126772530E+02 -0.29679550840E+02  0.42220119221E+03  0.43041910393E+03  0.47000000000E+01 0. -1.
        2    1    4    4  502    0 -0.28829095877E+02 -0.20648613669E+02  0.54063010255E+02  0.64655170662E+02  0.00000000000E+00 0. -1.
       -1    1    4    4    0  502  0.28574131850E+02  0.44769128530E+02  0.14271921043E+03  0.15228108519E+03  0.00000000000E+00 0.  1.
       -5    1    5    5    0  504 -0.28256646863E+02  0.64560233708E+02  0.28259912260E+02  0.76073480986E+02  0.47000000000E+01 0.  1.
       13    1    6    6    0    0 -0.23987715278E+02  0.59954141117E+01 -0.36120413955E+02  0.43772591640E+02  0.00000000000E+00 0. -1.
      -14    1    6    6    0    0 -0.25627446362E+02 -0.64996611841E+02  0.11013925712E+02  0.70729287551E+02  0.00000000000E+00 0.  1.
</event>
<event>
12   0  0.1544783E-01  0.2070550E+03  0.7957747E-01  0.1150359E+00
       21   -1    0    0  501  503  0.00000000000E+00  0.00000000000E+00  0.37826916509E+03  0.37826916509E+03  0.00000000000E+00 0. -1.
       21   -1    0    0  503  504  0.00000000000E+00  0.00000000000E+00 -0.13687580591E+03  0.13687580591E+03  0.00000000000E+00 0.  1.
        6    2    1    2  501    0  0.96355678843E+02 -0.50436114722E+02  0.22971231923E+03  0.30776068937E+03  0.17355308641E+03 0.  0.
       24    2    3    3    0    0  0.17912268360E+02 -0.35288391688E+02  0.20674457692E+03  0.22449947782E+03  0.78042139324E+02 0.  0.
       -6    2    1    2    0  504 -0.96355678843E+02  0.50436114722E+02  0.11681039948E+02  0.20738428164E+03  0.17619187002E+03 0.  0.
      -24    2    5    5    0    0 -0.70591048736E+02  0.10259750517E+03  0.31546730633E+02  0.14572909139E+03  0.68792642307E+02 0.  0.
        5    1    3    3  501    0  0.78443410483E+02 -0.15147723033E+02  0.22967742308E+02  0.83261211546E+02  0.47000000000E+01 0. -1.
        4    1    4    4  502    0  0.11325328661E+02 -0.56356660501E+02  0.18414398809E+03  0.19290760638E+03  0.00000000000E+00 0. -1.
       -3    1    4    4    0  502  0.65869396991E+01  0.21068268813E+02  0.22600588837E+02  0.31591871441E+02  0.00000000000E+00 0.  1.
       -5    1    5    5    0  504 -0.25764630108E+02 -0.52161390446E+02 -0.19865690684E+02  0.61655190246E+02  0.47000000000E+01 0.  1.
       13    1    6    6    0    0 -0.41966033716E+01  0.14935108888E+02  0.32218841735E+02  0.35759232656E+02  0.00000000000E+00 0. -1.
      -14    1    6    6    0    0 -0.66394445364E+02  0.87662396280E+02 -0.67211110291E+00  0.10996985873E+03  0.00000000000E+00 0.  1.
</event>
<event>
12   0  0.1544783E-01  0.2146656E+03  0.7957747E-01  0.1144560E+00
       -1   -1    0    0    0  501  0.00000000000E+00  0.00000000000E+00  0.39335252159E+03  0.39335252159E+03  0.00000000000E+00 0. -1.
        1   -1    0    0  502    0  0.00000000000E+00  0.00000000000E+00 -0.12261070096E+03  0.12261070096E+03  0.00000000000E+00 0.  1.
        6    2    1    2  502    0  0.12950605807E+03 -0.11662285954E+02  0.82050106763E+02  0.23149324027E+03  0.17305800265E+03 0.  0.
       24    2    3    3    0    0  0.67306016160E+02  0.55319248134E+02  0.74323394383E+02  0.13963920821E+03  0.79905084260E+02 0.  0.
       -6    2    1    2    0  501 -0.12950605807E+03  0.11662285954E+02  0.18869171386E+03  0.28446998227E+03  0.16855497602E+03 0.  0.
      -24    2    5    5    0    0 -0.20592378777E+02 -0.23911098453E+02  0.27992048256E+02  0.87051321192E+02  0.76148480371E+02 0.  0.
        5    1    3    3  502    0  0.62200041915E+02 -0.66981534088E+02  0.77267123795E+01  0.91854032068E+02  0.47000000000E+01 0. -1.
        4    1    4    4  503    0 -0.16184943810E+02  0.22343978556E+02  0.10610306153E+02  0.29559844054E+02  0.00000000000E+00 0. -1.
       -3    1    4    4    0  503  0.83490959970E+02  0.32975269578E+02  0.63713088230E+02  0.11007936415E+03  0.00000000000E+00 0.  1.
       -5    1    5    5    0  501 -0.10891367930E+03  0.35573384407E+02  0.16069966561E+03  0.19741866108E+03  0.47000000000E+01 0.  1.
       13    1    6    6    0    0 -0.34735888508E+02  0.13706797391E+02  0.28311002007E+02  0.46861189484E+02  0.00000000000E+00 0. -1.
      -14    1    6    6    0    0  0.14143509731E+02 -0.37617895844E+02 -0.31895375089E+00  0.40190131709E+02  0.00000000000E+00 0.  1.
</event>
<event>
12   0  0.1544783E-01  0.2284713E+03  0.7957747E-01  0.1134683E+00
       21   -1    0    0  501  503  0.00000000000E+00  0.00000000000E+00  0.49098535707E+03  0.49098535707E+03  0.00000000000E+00 0. -1.
       21   -1    0    0  503  504  0.00000000000E+00  0.00000000000E+00 -0.19929987252E+03  0.19929987252E+03  0.00000000000E+00 0. -1.
        6    2    1    2  501    0  0.15973873838E+02  0.14883309816E+03  0.38178985780E+03  0.44492991763E+03  0.17260556286E+03 0.  0.
       24    2    3    3    0    0 -0.13110408730E+02  0.45448102403E+02  0.61786760764E+02  0.10735263025E+03  0.73956545264E+02 0.  0.
       -6    2    1    2    0  504 -0.15973873838E+02 -0.14883309816E+03 -0.90104373240E+02  0.24535531196E+03  0.17226135747E+03 0.  0.
      -24    2    5    5    0    0 -0.43500598889E+02 -0.15751436734E+03 -0.38136726504E+02  0.18572468784E+03  0.79600073755E+02 0.  0.
        5    1    3    3  501    0  0.29084282568E+02  0.10338499576E+03  0.32000309703E+03  0.33757728737E+03  0.47000000000E+01 0. -1.
      -11    1    4    4    0    0  0.97148532015E+01  0.41712017083E+02  0.15816073221E+01  0.42857580701E+02  0.00000000000E+00 0.  1.
       12    1    4    4    0    0 -0.22825261931E+02  0.37360853199E+01  0.60205153441E+02  0.64495049551E+02  0.00000000000E+00 0. -1.
       -5    1    5    5    0  504  0.27526725051E+02  0.86812691775E+01 -0.51967646736E+02  0.59630624128E+02  0.47000000000E+01 0.  1.
        1    1    6    6  502    0 -0.10511293563E+02 -0.12234957308E+03  0.22613691056E+01  0.12282108579E+03  0.00000000000E+00 0. -1.
       -2    1    6    6    0  502 -0.32989305325E+02 -0.35164794259E+02 -0.40398095610E+02  0.62903602043E+02  0.00000000000E+00 0.  1.
</event>
<event>
12   0  0.1544783E-01  0.1967373E+03  0.7957747E-01  0.1158673E+00
       21   -1    0    0  504  503  0.00000000000E+00  0.00000000000E+00  0.37656941029E+03  0.37656941029E+03  0.00000000000E+00 0. -1.
       21   -1    0    0  501  504  0.00000000000E+00  0.00000000000E+00 -0.22936676809E+03  0.22936676809E+03  0.00000000000E+00 0.  1.
        6    2    1    2  501    0 -0.27486434335E+02  0.73938819007E+02  0.30128320709E+03  0.35604345507E+03  0.17254830626E+03 0.  0.
       24    2    3    3    0    0  0.43734257551E+02  0.66029218274E+02  0.15113209000E+03  0.18960308526E+03  0.82679370851E+02 0.  0.
       -6    2    1    2    0  503  0.27486434335E+02 -0.73938819007E+02 -0.15408056489E+03  0.24989272332E+03  0.18023068457E+03 0.  0.
      -24    2    5    5    0    0 -0.31423384143E+02  0.69276125224E+01 -0.35239342415E+02  0.94473700602E+02  0.81535562580E+02 0.  0.
        5    1    3    3  501    0 -0.71220691886E+02  0.79096007336E+01  0.15015111709E+03  0.16644036980E+03  0.47000000000E+01 0. -1.
        2    1    4    4  502    0  0.25669101244E+02  0.77195992376E+02  0.14693800651E+03  0.16795505874E+03  0.00000000000E+00 0. -1.
       -1    1    4    4    0  502  0.18065156307E+02 -0.11166774102E+02  0.41940834904E+01  0.21648026529E+02  0.00000000000E+00 0.  1.
       -5    1    5    5    0  503  0.58909818478E+02 -0.80866431529E+02 -0.11884122248E+03  0.15541902271E+03  0.47000000000E+01 0.  1.
       13    1    6    6    0    0 -0.28355761656E+02  0.31582735181E+02 -0.49991015162E+02  0.65579112357E+02  0.00000000000E+00 0. -1.
      -14    1    6    6    0    0 -0.30676224875E+01 -0.24655122658E+02  0.14751672746E+02  0.28894588245E+02  0.00000000000E+00 0.  1.
</event>
<event>
12   0  0.1544783E-01  0.2401507E+03  0.7957747E-01  0.1126904E+00
       21   -1    0    0  504  503  0.00000000000E+00  0.00000000000E+00  0.13740088429E+04  0.13740088429E+04  0.00000000000E+00 0. -1.
       21   -1    0    0  501  504  0.00000000000E+00  0.00000000000E+00 -0.54560967480E+02  0.54560967480E+02  0.00000000000E+00 0. -1.
        6    2    1    2  501    0 -0.78179204875E+02  0.13528763414E+03  0.28831268054E+03  0.36983842833E+03  0.17100154761E+03 0.  0.
       24    2    3    3    0    0 -0.87003736597E+02  0.10370897236E+03  0.12024057546E+03  0.19853341747E+03  0.81440289392E+02 0.  0.
       -6    2    1    2    0  503  0.78179204875E+02 -0.13528763414E+03  0.10311351949E+04  0.10587313820E+04  0.18236671074E+03 0.  0.
      -24    2    5    5    0    0  0.47755501577E+02 -0.16439559273E+03  0.93028273447E+03  0.94934132881E+03  0.80724802273E+02 0.  0.
        5    1    3    3  501    0  0.88245317221E+01  0.31578661782E+02  0.16807210508E+03  0.17130501086E+03  0.47000000000E+01 0. -1.
      -13    1    4    4    0    0 -0.49491234218E+02  0.84586881482E+01  0.65237761280E+02  0.82321911824E+02  0.00000000000E+00 0.  1.
       14    1    4    4    0    0 -0.37512502379E+02  0.95250284211E+02  0.55002814181E+02  0.11621150565E+03  0.00000000000E+00 0. -1.
       -5    1    5    5    0  503  0.30423703297E+02  0.29107958589E+02  0.10085246040E+03  0.10939005323E+03  0.47000000000E+01 0.  1.
        1    1    6    6  502    0  0.45733672358E+02 -0.10215371152E+03  0.75655770292E+03  0.76479180658E+03  0.00000000000E+00 0. -1.
       -2    1    6    6    0  502  0.20218292192E+01 -0.62241881206E+02  0.17372503154E+03  0.18454952223E+03  0.00000000000E+00 0.  1.
</event>
<event>
12   0  0.1544783E-01  0.1826125E+03  0.7957747E-01  0.1171007E+00
        1   -1    0    0  502    0  0.00000000000E+00  0.00000000000E+00  0.25686375384E+03  0.25686375384E+03  0.00000000000E+00 0.  1.
       -1   -1    0    0    0  501  0.00000000000E+00  0.00000000000E+00 -0.14748626001E+03  0.14748626001E+03  0.00000000000E+00 0. -1.
        6    2    1    2  502    0 -0.62647128956E+02  0.86110470595E+01 -0.14724543734E+02  0.18516548990E+03  0.17340886241E+03 0.  0.
       24    2    3    3    0    0 -0.37467481856E+02  0.62096453833E+02  0.28075793398E+02  0.11203094112E+03  0.80640559389E+02 0.  0.
       -6    2    1    2    0  501  0.62647128956E+02 -0.86110470595E+01  0.12410203757E+03  0.21918452395E+03  0.16923866850E+03 0.  0.
      -24    2    5    5    0    0  0.23454595093E+02  0.55510903366E+02  0.50970183314E+02  0.11421768470E+03  0.82559926641E+02 0.  0.
        5    1    3    3  502    0 -0.25179647100E+02 -0.53485406774E+02 -0.42800337132E+02  0.73134548774E+02  0.47000000000E+01 0. -1.
        4    1    4    4  503    0 -0.60888558856E+02  0.56055230740E+02  0.29342954488E+02  0.87810104606E+02  0.00000000000E+00 0. -1.
       -3    1    4    4    0  503  0.23421077000E+02  0.60412230935E+01 -0.12671610900E+01  0.24220836516E+02  0.00000000000E+00 0.  1.
       -5    1    5    5    0  501  0.39192533863E+02 -0.64121950425E+02  0.73131854254E+02  0.10496683926E+03  0.47000000000E+01 0.  1.
       11    1    6    6    0    0 -0.13392670213E+02  0.22719021482E+02 -0.16148037268E+02  0.30923723258E+02  0.00000000000E+00 0. -1.
      -12    1    6    6    0    0  0.36847265306E+02  0.32791881883E+02  0.67118220582E+02  0.83293961438E+02  0.00000000000E+00 0.  1.
</event>
<event>
12   0  0.1544783E-01  0.3637195E+03  0.7957747E-01  0.1066054E+00
       21   -1    0    0  504  503  0.00000000000E+00  0.00000000000E+00  0.34921222225E+03  0.34921222225E+03  0.00000000000E+00 0. -1.
       21   -1    0    0  501  504  0.00000000000E+00  0.00000000000E+00 -0.38653563493E+03  0.38653563493E+03  0.00000000000E+00 0.  1.
        6    2    1    2  501    0 -0.12074759271E+03 -0.29636664571E+03  0.33821387910E+02  0.36528860215E+03  0.17285458265E+03 0.  0.
       24    2    3    3    0    0 -0.10119320215E+03 -0.20112919609E+03  0.87055680609E+02  0.25434480593E+03  0.80122225976E+02 0.  0.
       -6    2    1    2    0  503  0.12074759271E+03  0.29636664571E+03 -0.71144800587E+02  0.37045925504E+03  0.17252625064E+03 0.  0.
      -24    2    5    5    0    0  0.10806321321E+03  0.11664102387E+03 -0.46144843837E+01  0.17833802872E+03  0.80624887743E+02 0.  0.
        5    1    3    3  501    0 -0.19554390553E+02 -0.95237449618E+02 -0.53234292699E+02  0.11094379622E+03  0.47000000000E+01 0. -1.
      -11    1    4    4    0    0 -0.10643630985E+03 -0.14183045464E+03  0.50065102094E+02  0.18425818941E+03  0.00000000000E+00 0.  1.
       12    1    4    4    0    0  0.52431076981E+01 -0.59298741453E+02  0.36990578514E+02  0.70086616519E+02  0.00000000000E+00 0. -1.
       -5    1    5    5    0  503  0.12684379500E+02  0.17972562184E+03 -0.66530316203E+02  0.19212122632E+03  0.47000000000E+01 0.  1.
        3    1    6    6  502    0  0.34813130401E+02  0.93406896379E+02  0.97543663185E+01  0.10015962261E+03  0.00000000000E+00 0. -1.
       -4    1    6    6    0  502  0.73250082805E+02  0.23234127494E+02 -0.14368850702E+02  0.78178406109E+02  0.00000000000E+00 0.  1.
</event>
<event>
12   0  0.1544783E-01  0.2074776E+03  0.7957747E-01  0.1150030E+00
       21   -1    0    0  501  503  0.00000000000E+00  0.00000000000E+00  0.11005775988E+03  0.11005775988E+03  0.00000000000E+00 0. -1.
       21   -1    0    0  503  504  0.00000000000E+00  0.00000000000E+00 -0.38998189156E+03  0.38998189156E+03  0.00000000000E+00 0. -1.
        6    2    1    2  501    0 -0.81918611802E+02  0.73682481405E+02 -0.12327710108E+03  0.24006800032E+03  0.17405641068E+03 0.  0.
       24    2    3    3    0    0  0.38389357859E+01  0.48813564736E+02 -0.11671847341E+03  0.15041352145E+03  0.81262069071E+02 0.  0.
       -6    2    1    2    0  504  0.81918611802E+02 -0.73682481405E+02 -0.15664703059E+03  0.25997165112E+03  0.17580443728E+03 0.  0.
      -24    2    5    5    0    0  0.20765363839E+02 -0.72983310339E+02 -0.24673988815E+02  0.11444095906E+03  0.82037573483E+02 0.  0.
        5    1    3    3  501    0 -0.85757547587E+02  0.24868916668E+02 -0.65586276735E+01  0.89654478870E+02  0.47000000000E+01 0. -1.
        2    1    4    4  502    0  0.31630174773E+02  0.54720117673E+02 -0.97203157034E+02  0.11594487040E+03  0.00000000000E+00 0. -1.
       -1    1    4    4    0  502 -0.27791238987E+02 -0.59065529371E+01 -0.19515316372E+02  0.34468651049E+02  0.00000000000E+00 0.  1.
       -5    1    5    5    0  504  0.61153247963E+02 -0.69917106541E+00 -0.13197304178E+03  0.14553069206E+03  0.47000000000E+01 0.  1.
       11    1    6    6    0    0 -0.30937351727E+01 -0.77859340856E+02 -0.37987115792E+02  0.86687191223E+02  0.00000000000E+00 0. -1.
      -12    1    6    6    0    0  0.23859099011E+02  0.48760305172E+01  0.13313126976E+02  0.27753767837E+02  0.00000000000E+00 0.  1.
</event>
<event>
12   0  0.1544783E-01  0.2358526E+03  0.7957747E-01  0.1129710E+00
       21   -1    0    0  504  503  0.00000000000E+00  0.00000000000E+00  0.23090093979E+03  0.23090093979E+03  0.00000000000E+00 0. -1.
       21   -1    0    0  501  504  0.00000000000E+00  0.00000000000E+00 -0.32010197658E+03  0.32010197658E+03  0.00000000000E+00 0. -1.
        6    2    1    2  501    0  0.97983455994E+02  0.12686223768E+03 -0.18203027696E+03  0.29753948359E+03  0.17233669826E+03 0.  0.
       24    2    3    3    0    0  0.82797769722E+02  0.15672059427E+03 -0.12532155136E+03  0.23150845993E+03  0.80460303524E+02 0.  0.
       -6    2    1    2    0  503 -0.97983455994E+02 -0.12686223768E+03  0.92829240178E+02  0.25346343278E+03  0.17300768459E+03 0.  0.
      -24    2    5    5    0    0 -0.80622164717E+02 -0.14101157285E+03  0.26884444133E+02  0.18366068036E+03  0.81389649547E+02 0.  0.
        5    1    3    3  501    0  0.15185686273E+02 -0.29858356596E+02 -0.56708725603E+02  0.66031023660E+02  0.47000000000E+01 0. -1.
      -13    1    4    4    0    0  0.59369249624E+01  0.56036885430E+02 -0.46179039841E+01  0.56539407884E+02  0.00000000000E+00 0.  1.
       14    1    4    4    0    0  0.76860844759E+02  0.10068370884E+03 -0.12070364738E+03  0.17496905205E+03  0.00000000000E+00 0. -1.
       -5    1    5    5    0  503 -0.17361291278E+02  0.14149335168E+02  0.65944796045E+02  0.69802752424E+02  0.47000000000E+01 0.  1.
        3    1    6    6  502    0 -0.89097138213E+02 -0.80121086393E+02  0.12118533901E+02  0.12043482630E+03  0.00000000000E+00 0. -1.
       -4    1    6    6    0  502  0.84749734959E+01 -0.60890486452E+02  0.14765910232E+02  0.63225854056E+02  0.00000000000E+00 0.  1.
</event>
<event>
12   0  0.1544783E-01  0.1907652E+03  0.7957747E-01  0.1163744E+00
       21   -1    0    0  504  503  0.00000000000E+00  0.00000000000E+00  0.20921861414E+03  0.20921861414E+03  0.00000000000E+00 0. -1.
       21   -1    0    0  501  504  0.00000000000E+00  0.00000000000E+00 -0.24460123919E+03  0.24460123919E+03  0.00000000000E+00 0. -1.
        6    2    1    2  501    0 -0.78259885631E+02  0.57692201116E+01 -0.13984411502E+03  0.23653275400E+03  0.17387775479E+03 0.  0.
       24    2    3    3    0    0 -0.66685851279E+01 -0.40491242427E+02 -0.26348425820E+02  0.94516183949E+02  0.80963317275E+02 0.  0.
       -6    2    1    2    0  503  0.78259885631E+02 -0.57692201116E+01  0.10446148997E+03  0.21728709933E+03  0.17361908608E+03 0.  0.
      -24    2    5    5    0    0  0.63566452521E+02 -0.43967156546E+02  0.12851968584E+03  0.16958106079E+03  0.79161997131E+02 0.  0.
        5    1    3    3  501    0 -0.71591300503E+02  0.46260462539E+02 -0.11349568920E+03  0.14201657005E+03  0.47000000000E+01 0. -1.
      -11    1    4    4    0    0 -0.30121448825E+02 -0.35481669609E+02 -0.44535583434E+02  0.64417922579E+02  0.00000000000E+00 0.  1.
       12    1    4    4    0    0  0.23452863697E+02 -0.50095728176E+01  0.18187157614E+02  0.30098261370E+02  0.00000000000E+00 0. -1.
       -5    1    5    5    0  503  0.14693433110E+02  0.38197936434E+02 -0.24058195877E+02  0.47706038541E+02  0.47000000000E+01 0.  1.
        1    1    6    6  502    0  0.12599840397E+02 -0.55900275569E+02  0.78413260859E+02  0.97119700706E+02  0.00000000000E+00 0. -1.
       -2    1    6    6    0  502  0.50966612123E+02  0.11933119023E+02  0.50106424985E+02  0.72461360088E+02  0.00000000000E+00 0.  1.
</event>
<event>
12   0  0.1544783E-01  0.1963644E+03  0.7957747E-01  0.1158983E+00
       21   -1    0    0  501  503  0.00000000000E+00  0.00000000000E+00  0.20275859601E+03  0.20275859601E+03  0.00000000000E+00 0. -1.
       21   -1    0    0  503  504  0.00000000000E+00  0.00000000000E+00 -0.32707812327E+03  0.32707812327E+03  0.00000000000E+00 0. -1.
        6    2    1    2  501    0 -0.51147001861E+02  0.77206979539E+02  0.10947359123E+03  0.22452017640E+03  0.17276547382E+03 0.  0.
       24    2    3    3    0    0 -0.57655546715E+02  0.11716300936E+03  0.98863899414E+02  0.18240722073E+03  0.80293154999E+02 0.  0.
       -6    2    1    2    0  504  0.51147001861E+02 -0.77206979539E+02 -0.23379311849E+03  0.30531654288E+03  0.17315321427E+03 0.  0.
      -24    2    5    5    0    0 -0.36839920300E+02 -0.57468782139E+02 -0.13911733658E+03  0.17448501538E+03  0.80196923910E+02 0.  0.
        5    1    3    3  501    0  0.65085448539E+01 -0.39956029816E+02  0.10609691821E+02  0.42112955671E+02  0.47000000000E+01 0. -1.
      -13    1    4    4    0    0  0.82645602609E+01  0.69061612269E+01 -0.94878146513E+01  0.14353279976E+02  0.00000000000E+00 0.  1.
       14    1    4    4    0    0 -0.65920106976E+02  0.11025684813E+03  0.10835171407E+03  0.16805394076E+03  0.00000000000E+00 0. -1.
       -5    1    5    5    0  504  0.87986922162E+02 -0.19738197400E+02 -0.94675781909E+02  0.13083152750E+03  0.47000000000E+01 0.  1.
        1    1    6    6  502    0 -0.32271516099E+02  0.68042518108E+01 -0.81979896111E+02  0.88365445512E+02  0.00000000000E+00 0. -1.
       -2    1    6    6    0  502 -0.45684042020E+01 -0.64273033950E+02 -0.57137440470E+02  0.86119569864E+02  0.00000000000E+00 0.  1.
</event>
<event>
12   0  0.1544783E-01  0.2166742E+03  0.7957747E-01  0.1143073E+00
       21   -1    0    0  501  503  0.00000000000E+00  0.00000000000E+00  0.20089935940E+03  0.20089935940E+03  0.00000000000E+00 0.  1.
       21   -1    0    0  503  504  0.00000000000E+00  0.00000000000E+00 -0.23627772649E+03  0.23627772649E+03  0.00000000000E+00 0.  1.
        6    2    1    2  501    0  0.84868067663E+02 -0.99243328098E+02  0.93335457819E+01  0.21687515898E+03  0.17290428689E+03 0.  0.
       24    2    3    3    0    0 -0.66675162476E+01 -0.49545798824E+01  0.23473116953E+02  0.84621052673E+02  0.80874790270E+02 0.  0.
       -6    2    1    2    0  504 -0.84868067663E+02  0.99243328098E+02 -0.44711912874E+02  0.22030192691E+03  0.17170310645E+03 0.  0.
      -24    2    5    5    0    0 -0.49345466079E+02 -0.54426917095E+01  0.14446613304E+02  0.94831455538E+02  0.79496555950E+02 0.  0.
        5    1    3    3  501    0  0.91535583910E+02 -0.94288748216E+02 -0.14139571171E+02  0.13225410631E+03  0.47000000000E+01 0. -1.
      -11    1    4    4    0    0 -0.12923417190E+02 -0.27308302641E+02  0.44174994568E+02  0.53518111421E+02  0.00000000000E+00 0.  1.
       12    1    4    4    0    0  0.62559009429E+01  0.22353722758E+02 -0.20701877614E+02  0.31102941252E+02  0.00000000000E+00 0. -1.
       -5    1    5    5    0  504 -0.35522601583E+02  0.10468601981E+03 -0.59158526177E+02  0.12547047137E+03  0.47000000000E+01 0.  1.
        3    1    6    6  502    0  0.58460130349E+01  0.26894683565E+02 -0.50008036679E+01  0.27973342842E+02  0.00000000000E+00 0. -1.
       -4    1    6    6    0  502 -0.55191479114E+02 -0.32337375274E+02  0.19447416972E+02  0.66858112696E+02  0.00000000000E+00 0.  1.
</event>
<event>
12   0  0.1544783E-01  0.3529551E+03  0.7957747E-01  0.1070236E+00
       -1   -1    0    0    0  501  0.00000000000E+00  0.00000000000E+00  0.22954769454E+03  0.22954769454E+03  0.00000000000E+00 0. -1.
        1   -1    0    0  502    0  0.00000000000E+00  0.00000000000E+00 -0.60006069539E+03  0.60006069539E+03  0.00000000000E+00 0.  1.
        6    2    1    2  502    0 -0.16298142119E+03  0.26072068569E+03 -0.56933255359E+02  0.35734379351E+03  0.17295945072E+03 0.  0.
       24    2    3    3    0    0 -0.10827211623E+03  0.11235703248E+03 -0.70262984743E+02  0.19858405892E+03  0.10075607936E+03 0.  0.
       -6    2    1    2    0  501  0.16298142119E+03 -0.26072068569E+03 -0.31357974549E+03  0.47226459642E+03  0.17367605663E+03 0.  0.
      -24    2    5    5    0    0  0.71235818796E+02 -0.95112983737E+02 -0.63618333471E+02  0.15866299565E+03  0.83699655196E+02 0.  0.
        5    1    3    3  502    0 -0.54709304963E+02  0.14836365321E+03  0.13329729384E+02  0.15875973459E+03  0.47000000000E+01 0. -1.
        4    1    4    4  503    0 -0.30804026797E+02  0.26559952818E+02  0.25899178132E+02  0.48219151678E+02  0.00000000000E+00 0. -1.
       -3    1    4    4    0  503 -0.77468089434E+02  0.85797079663E+02 -0.96162162876E+02  0.15036490724E+03  0.00000000000E+00 0.  1.
       -5    1    5    5    0  501  0.91745602399E+02 -0.16560770195E+03 -0.24996141202E+03  0.31360160077E+03  0.47000000000E+01 0.  1.
       13    1    6    6    0    0  0.81463516306E+02 -0.10156552654E+03 -0.66547205152E+02  0.14622035147E+03  0.00000000000E+00 0. -1.
      -14    1    6    6    0    0 -0.10227697510E+02  0.64525427993E+01  0.29288716803E+01  0.12442644183E+02  0.00000000000E+00 0.  1.
</event>
<event>
12   0  0.1544783E-01  0.2062641E+03  0.7957747E-01  0.1150978E+00
       21   -1    0    0  504  503  0.00000000000E+00  0.00000000000E+00  0.41654785006E+03  0.41654785006E+03  0.00000000000E+00 0. -1.
       21   -1    0    0  501  504  0.00000000000E+00  0.00000000000E+00 -0.15173877714E+03  0.15173877714E+03  0.00000000000E+00 0. -1.
        6    2    1    2  501    0  0.31297079230E+02  0.10746982374E+03 -0.31197387833E+02  0.20750314280E+03  0.17191569760E+03 0.  0.
       24    2    3    3    0    0 -0.43203906204E+02  0.58823786579E+02  0.27409168092E+02  0.10085581672E+03  0.63982950018E+02 0.  0.
       -6    2    1    2    0  503 -0.31297079230E+02 -0.10746982374E+03  0.29600646075E+03  0.36078348440E+03  0.17325018796E+03 0.  0.
      -24    2    5    5    0    0  0.33692004069E+02 -0.10730034888E+03  0.22762072860E+03  0.26632551474E+03  0.80433623001E+02 0.  0.
        5    1    3    3  501    0  0.74500985434E+02  0.48646037164E+02 -0.58606555925E+02  0.10664732608E+03  0.47000000000E+01 0. -1.
      -13    1    4    4    0    0 -0.41372157154E+02  0.47163338249E+02  0.46720417019E+02  0.78222971235E+02  0.00000000000E+00 0.  1.
       14    1    4    4    0    0 -0.18317490496E+01  0.11660448330E+02 -0.19311248927E+02  0.22632845490E+02  0.00000000000E+00 0. -1.
       -5    1    5    5    0  503 -0.64989083299E+02 -0.16947486392E+00  0.68385732153E+02  0.94457969657E+02  0.47000000000E+01 0.  1.
        1    1    6    6  502    0 -0.32610944551E+01 -0.42926083573E+02  0.16076523163E+03  0.16642939370E+03  0.00000000000E+00 0. -1.
       -2    1    6    6    0  502  0.36953098524E+02 -0.64374265306E+02  0.66855496970E+02  0.99896121042E+02  0.00000000000E+00 0.  1.
</event>
<event>
12   0  0.1544783E-01  0.2091076E+03  0.7957747E-01  0.1148769E+00
       -1   -1    0    0    0  501  0.00000000000E+00  0.00000000000E+00  0.44585376403E+03  0.44585376403E+03  0.00000000000E+00 0. -1.
        1   -1    0    0  502    0  0.00000000000E+00  0.00000000000E+00 -0.98255095629E+02  0.98255095629E+02  0.00000000000E+00 0.  1.
        6    2    1    2  502    0  0.94915274204E+02  0.70340245638E+02  0.18744148910E+03  0.28328374917E+03  0.17651830294E+03 0.  0.
       24    2    3    3    0    0 -0.11769287587E+02  0.71064459951E+02  0.76389187376E+02  0.12921615384E+03  0.75318210731E+02 0.  0.
       -6    2    1    2    0  501 -0.94915274204E+02 -0.70340245638E+02  0.16015717930E+03  0.26082511049E+03  0.16859050017E+03 0.  0.
      -24    2    5    5    0    0 -0.70596609259E+02  0.64632412280E+01  0.14085752262E+03  0.17785077827E+03  0.82245990334E+02 0.  0.
        5    1    3    3  502    0  0.10668456179E+03 -0.72421431223E+00  0.11105230172E+03  0.15406759532E+03  0.47000000000E+01 0. -1.
        2    1    4    4  503    0  0.91082258941E+01  0.56856053073E+02  0.84884637876E+02  0.10257179094E+03  0.00000000000E+00 0. -1.
       -1    1    4    4    0  503 -0.20877513481E+02  0.14208406877E+02 -0.84954505003E+01  0.26644362900E+02  0.00000000000E+00 0.  1.
       -5    1    5    5    0  501 -0.24318664945E+02 -0.76803486866E+02  0.19299656681E+02  0.82974332221E+02  0.47000000000E+01 0.  1.
       13    1    6    6    0    0 -0.40805093337E+02 -0.83139103893E+01  0.13837247261E+03  0.14450300316E+03  0.00000000000E+00 0. -1.
      -14    1    6    6    0    0 -0.29791515922E+02  0.14777151617E+02  0.24850500134E+01  0.33347775105E+02  0.00000000000E+00 0.  1.
</event>
<event>
12   0  0.1544783E-01  0.1832586E+03  0.7957747E-01  0.1170416E+00
       21   -1    0    0  501  503  0.00000000000E+00  0.00000000000E+00  0.18357728402E+03  0.18357728402E+03  0.00000000000E+00 0.  1.
       21   -1    0    0  503  504  0.00000000000E+00  0.00000000000E+00 -0.18459165958E+03  0.18459165958E+03  0.00000000000E+00 0.  1.
        6    2    1    2  501    0  0.20460782306E+02 -0.49990268202E+02  0.23188193294E+02  0.18331906839E+03  0.17363904515E+03 0.  0.
       24    2    3    3    0    0  0.28615072184E+02  0.49477403074E+01 -0.42834751761E+02  0.96914227690E+02  0.81940521600E+02 0.  0.
       -6    2    1    2    0  504 -0.20460782306E+02  0.49990268202E+02 -0.24202568855E+02  0.18484987521E+03  0.17511722216E+03 0.  0.
      -24    2    5    5    0    0 -0.65505858890E+02  0.21308680250E+02  0.28548417209E+02  0.10964050782E+03  0.80380043709E+02 0.  0.
        5    1    3    3  501    0 -0.81542898788E+01 -0.54938008509E+02  0.66022945055E+02  0.86404840699E+02  0.47000000000E+01 0. -1.
      -13    1    4    4    0    0  0.34868659648E+02 -0.28395600883E+02 -0.44075925961E+02  0.62966823205E+02  0.00000000000E+00 0.  1.
       14    1    4    4    0    0 -0.62535874639E+01  0.33343341190E+02  0.12411741998E+01  0.33947404485E+02  0.00000000000E+00 0. -1.
       -5    1    5    5    0  504  0.45045076585E+02  0.28681587952E+02 -0.52750986064E+02  0.75209367387E+02  0.47000000000E+01 0.  1.
        3    1    6    6  502    0 -0.24554199074E+02  0.26678471776E+02  0.51042755946E+02  0.62610003059E+02  0.00000000000E+00 0. -1.
       -4    1    6    6    0  502 -0.40951659816E+02 -0.53697915265E+01 -0.22494338737E+02  0.47030504760E+02  0.00000000000E+00 0.  1.
</event>
<event>
12   0  0.1544783E-01  0.1747324E+03  0.7957747E-01  0.1178434E+00
       -2   -1    0    0    0  501  0.00000000000E+00  0.00000000000E+00  0.31824464720E+03  0.31824464720E+03  0.00000000000E+00 0. -1.
        2   -1    0    0  502    0  0.00000000000E+00  0.00000000000E+00 -0.12845339058E+03  0.12845339058E+03  0.00000000000E+00 0.  1.
        6    2    1    2  502    0  0.21974341336E+02 -0.18539178976E+02 -0.17259697211E+02  0.17611353085E+03  0.17289160120E+03 0.  0.
       24    2    3    3    0    0  0.66091890864E+00 -0.52988669293E+02  0.45753411562E+02  0.10105507872E+03  0.72873303605E+02 0.  0.
       -6    2    1    2    0  501 -0.21974341336E+02  0.18539178976E+02  0.20705095383E+03  0.27058450694E+03  0.17181183044E+03 0.  0.
      -24    2    5    5    0    0 -0.40527106645E+02 -0.24940286288E+01  0.22124300439E+03  0.23880235437E+03  0.80183732196E+02 0.  0.
        5    1    3    3  502    0  0.21313422427E+02  0.34449490317E+02 -0.63013108773E+02  0.75058452128E+02  0.47000000000E+01 0. -1.
      -11    1    4    4    0    0 -0.19510944026E+02 -0.84071279269E+01  0.47559479579E+02  0.52088970374E+02  0.00000000000E+00 0.  1.
       12    1    4    4    0    0  0.20171862935E+02 -0.44581541366E+02 -0.18060680174E+01  0.48966108346E+02  0.00000000000E+00 0. -1.
       -5    1    5    5    0  501  0.18552765309E+02  0.21033207605E+02 -0.14192050560E+02  0.31782152568E+02  0.47000000000E+01 0.  1.
        1    1    6    6  503    0 -0.23181530807E+01  0.35347241376E+02  0.73864928831E+02  0.81919649766E+02  0.00000000000E+00 0. -1.
       -2    1    6    6    0  503 -0.38208953564E+02 -0.37841270005E+02  0.14737807556E+03  0.15688270460E+03  0.00000000000E+00 0.  1.
</event>
<event>
12   0  0.1544783E-01  0.1961534E+03  0.7957747E-01  0.1159160E+00
       21   -1    0    0  504  503  0.00000000000E+00  0.00000000000E+00  0.18364196415E+03  0.18364196415E+03  0.00000000000E+00 0. -1.
       21   -1    0    0  501  504  0.00000000000E+00  0.00000000000E+00 -0.36668582857E+03  0.36668582857E+03  0.00000000000E+00 0.  1.
        6    2    1    2  501    0  0.36309932560E+02  0.83262334804E+02 -0.27274178625E+03  0.33595272546E+03  0.17385374364E+03 0.  0.
       24    2    3    3    0    0  0.11017599341E+02 -0.24649206857E+02 -0.10216332080E+03  0.13247371962E+03  0.79893500225E+02 0.  0.
       -6    2    1    2    0  503 -0.36309932560E+02 -0.83262334804E+02  0.89697921837E+02  0.21437506727E+03  0.17222056986E+03 0.  0.
      -24    2    5    5    0    0 -0.70945191636E+02 -0.10743687945E+03  0.74202429091E+02  0.16914001365E+03  0.80786387799E+02 0.  0.
        5    1    3    3  501    0  0.25292333219E+02  0.10791154166E+03 -0.17057846545E+03  0.20347900584E+03  0.47000000000E+01 0. -1.
      -13    1    4    4    0    0  0.25490047405E+02 -0.12786263862E+02 -0.10890994481E+03  0.11258155772E+03  0.00000000000E+00 0.  1.
       14    1    4    4    0    0 -0.14472448064E+02 -0.11862942995E+02  0.67466240073E+01  0.19892161898E+02  0.00000000000E+00 0. -1.
       -5    1    5    5    0  503  0.34635259076E+02  0.24174544644E+02  0.15495492746E+02  0.45235053613E+02  0.47000000000E+01 0.  1.
        1    1    6    6  502    0 -0.22971955130E+02  0.25996479156E+01  0.36707470966E+02  0.43380955689E+02  0.00000000000E+00 0. -1.
       -2    1    6    6    0  502 -0.47973236506E+02 -0.11003652736E+03  0.37494958125E+02  0.12575905796E+03  0.00000000000E+00 0.  1.
</event>
<event>
12   0  0.1544783E-01  0.2855914E+03  0.7957747E-01  0.1100677E+00
       21   -1    0    0  504  503  0.00000000000E+00  0.00000000000E+00  0.23590681509E+03  0.23590681509E+03  0.00000000000E+00 0.  1.
       21   -1    0    0  501  504  0.00000000000E+00  0.00000000000E+00 -0.39786006242E+03  0.39786006242E+03  0.00000000000E+00 0.  1.
        6    2    1    2  501    0  0.14657703192E+03  0.17292686662E+03  0.35008641720E+02  0.28684262311E+03  0.17223402089E+03 0.  0.
       24    2    3    3    0    0  0.14334489126E+03  0.19586627358E+03  0.15654192028E+02  0.25629188093E+03  0.80802967313E+02 0.  0.
       -6    2    1    2    0  503 -0.14657703192E+03 -0.17292686662E+03 -0.19696188905E+03  0.34692425439E+03  0.17370643357E+03 0.  0.
      -24    2    5    5    0    0 -0.17609981781E+03 -0.12691529546E+03 -0.16668847208E+03  0.28425664440E+03  0.76799447320E+02 0.  0.
        5    1    3    3  501    0  0.32321406610E+01 -0.22939406960E+02  0.19354449691E+02  0.30550742181E+02  0.47000000000E+01 0. -1.
        4    1    4    4  502    0  0.11595334722E+03  0.10614766040E+03  0.33678165810E+02  0.16076916182E+03  0.00000000000E+00 0. -1.
       -3    1    4    4    0  502  0.27391544043E+02  0.89718613177E+02 -0.18023973781E+02  0.95522719111E+02  0.00000000000E+00 0.  1.
       -5    1    5    5    0  503  0.29522785884E+02 -0.46011571163E+02 -0.30273416971E+02  0.62667609994E+02  0.47000000000E+01 0.  1.
       13    1    6    6    0    0 -0.89864412691E+02 -0.38256083371E+02 -0.11318468820E+03  0.14949887701E+03  0.00000000000E+00 0. -1.
      -14    1    6    6    0    0 -0.86235405117E+02 -0.88659212086E+02 -0.53503783877E+02  0.13475776739E+03  0.00000000000E+00 0.  1.
</event>
<event>
12   0  0.1544783E-01  0.1966128E+03  0.7957747E-01  0.1158776E+00
       21   -1    0    0  501  503  0.00000000000E+00  0.00000000000E+00  0.24066150836E+03  0.24066150836E+03  0.00000000000E+00 0. -1.
       21   -1    0    0  503  504  0.00000000000E+00  0.00000000000E+00 -0.16378170173E+03  0.16378170173E+03  0.00000000000E+00 0.  1.
        6    2    1    2  501    0 -0.80422022243E+02 -0.46296558088E+02  0.70576803112E+01  0.19580061256E+03  0.17227012532E+03 0.  0.
       24    2    3    3    0    0 -0.32703630723E+02 -0.54470981269E+02 -0.55787290355E+02  0.11633082949E+03  0.79900093005E+02 0.  0.
       -6    2    1    2    0  504  0.80422022243E+02  0.46296558088E+02  0.69822126324E+02  0.20864259753E+03  0.17333646825E+03 0.  0.
      -24    2    5    5    0    0  0.11553088621E+03  0.21405598796E+02  0.21397043002E+02  0.14368668264E+03  0.79890199586E+02 0.  0.
        5    1    3    3  501    0 -0.47718391520E+02  0.81744231811E+01  0.62844970666E+02  0.79469783072E+02  0.47000000000E+01 0. -1.
        4    1    4    4  502    0  0.73972730240E+00 -0.64921447848E+02 -0.24621092709E+02  0.69437308368E+02  0.00000000000E+00 0. -1.
       -3    1    4    4    0  502 -0.33443358026E+02  0.10450466579E+02 -0.31166197645E+02  0.46893521124E+02  0.00000000000E+00 0.  1.
       -5    1    5    5    0  504 -0.35108863971E+02  0.24890959292E+02  0.48425083322E+02  0.64955914885E+02  0.47000000000E+01 0.  1.
       13    1    6    6    0    0  0.89037028132E+02  0.25989665789E+02  0.49213034476E+02  0.10499989461E+03  0.00000000000E+00 0. -1.
      -14    1    6    6    0    0  0.26493858082E+02 -0.45840669930E+01 -0.27815991474E+02  0.38686788028E+02  0.00000000000E+00 0.  1.
</event>
<event>
12   0  0.1544783E-01  0.2090148E+03  0.7957747E-01  0.1148840E+00
       21   -1    0    0  504  503  0.00000000000E+00  0.00000000000E+00  0.21456565678E+03  0.21456565678E+03  0.00000000000E+00 0.  1.
       21   -1    0    0  501  504  0.00000000000E+00  0.00000000000E+00 -0.20537593599E+03  0.20537593599E+03  0.00000000000E+00 0. -1.
        6    2    1    2  501    0  0.75073874928E+02 -0.89600314895E+02 -0.21640491374E+02  0.20866521506E+03  0.17148923576E+03 0.  0.
       24    2    3    3    0    0  0.14403708141E+02 -0.77200070335E+01 -0.57189596102E+02  0.10063242929E+03  0.81173706373E+02 0.  0.
       -6    2    1    2    0  503 -0.75073874928E+02  0.89600314895E+02  0.30830212167E+02  0.21127637771E+03  0.17327118245E+03 0.  0.
      -24    2    5    5    0    0 -0.73865069643E+02  0.12884675230E+03  0.26539583541E+02  0.17149895254E+03  0.81547575908E+02 0.  0.
        5    1    3    3  501    0  0.60670166787E+02 -0.81880307862E+02  0.35549104728E+02  0.10803278577E+03  0.47000000000E+01 0. -1.
      -11    1    4    4    0    0  0.36293321399E+02  0.11580751659E+02 -0.60255399890E+02  0.71288373548E+02  0.00000000000E+00 0.  1.
       12    1    4    4    0    0 -0.21889613259E+02 -0.19300758693E+02  0.30658037873E+01  0.29344055745E+02  0.00000000000E+00 0. -1.
       -5    1    5    5    0  503 -0.12088052847E+01 -0.39246437402E+02  0.42906286256E+01  0.39777425168E+02  0.47000000000E+01 0.  1.
        1    1    6    6  502    0 -0.18512998114E+02  0.98507890794E+02 -0.61389509736E+01  0.10042022887E+03  0.00000000000E+00 0. -1.
       -2    1    6    6    0  502 -0.55352071529E+02  0.30338861503E+02  0.32678534515E+02  0.71078723666E+02  0.00000000000E+00 0.  1.
</event>
<event>
12   0  0.1544783E-01  0.3256085E+03  0.7957747E-01  0.1081627E+00
       21   -1    0    0  501  503  0.00000000000E+00  0.00000000000E+00  0.27207513700E+03  0.27207513700E+03  0.00000000000E+00 0.  1.
       21   -1    0    0  503  504  0.00000000000E+00  0.00000000000E+00 -0.53445251112E+03  0.53445251112E+03  0.00000000000E+00 0. -1.
        6    2    1    2  501    0 -0.21265145212E+03 -0.17644236791E+03  0.78821988316E+02  0.33501314789E+03  0.17224504094E+03 0.  0.
       24    2    3    3    0    0 -0.23723992315E+03 -0.16457588485E+03  0.65627960733E+02  0.30432799363E+03  0.70288658185E+02 0.  0.
       -6    2    1    2    0  504  0.21265145212E+03  0.17644236791E+03 -0.34119936243E+03  0.47151450024E+03  0.17191966067E+03 0.  0.
      -24    2    5    5    0    0  0.14375498370E+03  0.17515182148E+03 -0.19466529662E+03  0.30951847771E+03  0.81015149379E+02 0.  0.
        5    1    3    3  501    0  0.24588471025E+02 -0.11866483062E+02  0.13194027583E+02  0.30685154252E+02  0.47000000000E+01 0. -1.
        2    1    4    4  502    0 -0.96841956850E+02 -0.44273954427E+02 -0.45198717984E+01  0.10657850106E+03  0.00000000000E+00 0. -1.
       -1    1    4    4    0  502 -0.14039796630E+03 -0.12030193042E+03  0.70147832532E+02  0.19774949257E+03  0.00000000000E+00 0.  1.
       -5    1    5    5    0  504  0.68896468421E+02  0.12905464277E+01 -0.14653406581E+03  0.16199602252E+03  0.47000000000E+01 0.  1.
       13    1    6    6    0    0  0.15428087569E+03  0.16670443608E+03 -0.18401639426E+03  0.29232685639E+03  0.00000000000E+00 0. -1.
      -14    1    6    6    0    0 -0.10525891983E+02  0.84473854044E+01 -0.10648902363E+02  0.17191621324E+02  0.00000000000E+00 0.  1.
</event>
<event>
12   0  0.1544783E-01  0.1972371E+03  0.7957747E-01  0.1158257E+00
       -2   -1    0    0    0  501  0.00000000000E+00  0.00000000000E+00  0.98207112727E+02  0.98207112727E+02  0.00000000000E+00 0. -1.
        2   -1    0    0  502    0  0.00000000000E+00  0.00000000000E+00 -0.62915457368E+03  0.62915457368E+03  0.00000000000E+00 0.  1.
        6    2    1    2  502    0  0.17723627900E+02  0.93307052112E+02 -0.44570892622E+02  0.20270383082E+03  0.17344147601E+03 0.  0.
       24    2    3    3    0    0  0.15432212710E+01  0.19496910383E+02 -0.84124137057E+02  0.11728549715E+03  0.79350528421E+02 0.  0.
       -6    2    1    2    0  501 -0.17723627900E+02 -0.93307052112E+02 -0.48637656833E+03  0.52465785559E+03  0.17228861323E+03 0.  0.
      -24    2    5    5    0    0 -0.69238997393E+01  0.17407481172E+02 -0.22043957780E+03  0.23635434374E+03  0.83179369784E+02 0.  0.
        5    1    3    3  502    0  0.16180406629E+02  0.73810141729E+02  0.39553244436E+02  0.85418333665E+02  0.47000000000E+01 0. -1.
        2    1    4    4  503    0  0.38474563142E+02  0.21578581002E+02 -0.52897516789E+02  0.68877241884E+02  0.00000000000E+00 0. -1.
       -1    1    4    4    0  503 -0.36931341871E+02 -0.20816706190E+01 -0.31226620268E+02  0.48408255271E+02  0.00000000000E+00 0.  1.
       -5    1    5    5    0  501 -0.10799728161E+02 -0.11071453328E+03 -0.26593699054E+03  0.28830351185E+03  0.47000000000E+01 0.  1.
       11    1    6    6    0    0  0.19192384437E+02 -0.24331717774E+02 -0.48937727342E+02  0.57924789750E+02  0.00000000000E+00 0. -1.
      -12    1    6    6    0    0 -0.26116284176E+02  0.41739198947E+02 -0.17150185046E+03  0.17842955399E+03  0.00000000000E+00 0.  1.
</event>
<event>
12   0  0.1544783E-01  0.1779340E+03  0.7957747E-01  0.1175366E+00
       21   -1    0    0  504  503  0.00000000000E+00  0.00000000000E+00  0.10872230517E+03  0.10872230517E+03  0.00000000000E+00 0.  1.
       21   -1    0    0  501  504  0.00000000000E+00  0.00000000000E+00 -0.59508776151E+03  0.59508776151E+03  0.00000000000E+00 0.  1.
        6    2    1    2  501    0 -0.38060755142E+02 -0.98480943342E+01 -0.49485559287E+03  0.52587313718E+03  0.17353643009E+03 0.  0.
       24    2    3    3    0    0 -0.61232267749E+02 -0.63458386614E+02 -0.28453409949E+03  0.30754264684E+03  0.76462202469E+02 0.  0.
       -6    2    1    2    0  503  0.38060755142E+02  0.98480943342E+01  0.84901365319E+01  0.17793692949E+03  0.17333165439E+03 0.  0.
      -24    2    5    5    0    0  0.36090394970E+02  0.61844664278E+02 -0.30773106579E+02  0.11258237445E+03  0.81243632609E+02 0.  0.
        5    1    3    3  501    0  0.23171512607E+02  0.53610292280E+02 -0.21032149338E+03  0.21833049034E+03  0.47000000000E+01 0. -1.
        4    1    4    4  502    0 -0.46761367904E+02 -0.24289126518E+02 -0.24299741443E+03  0.24864498912E+03  0.00000000000E+00 0. -1.
       -3    1    4    4    0  502 -0.14470899845E+02 -0.39169260096E+02 -0.41536685058E+02  0.58897657715E+02  0.00000000000E+00 0.  1.
       -5    1    5    5    0  503  0.19703601724E+01 -0.51996569944E+02  0.39263243111E+02  0.65354555042E+02  0.47000000000E+01 0.  1.
       13    1    6    6    0    0  0.20955962519E+02 -0.17289502675E+02 -0.28692499282E+01  0.27318709029E+02  0.00000000000E+00 0. -1.
      -14    1    6    6    0    0  0.15134432451E+02  0.79134166953E+02 -0.27903856651E+02  0.85263665421E+02  0.00000000000E+00 0.  1.
</event>
<event>
12   0  0.1544783E-01  0.1782165E+03  0.7957747E-01  0.1175098E+00
       21   -1    0    0  504  503  0.00000000000E+00  0.00000000000E+00  0.61742966093E+02  0.61742966093E+02  0.00000000000E+00 0. -1.
       21   -1    0    0  501  504  0.00000000000E+00  0.00000000000E+00 -0.51473747420E+03  0.51473747420E+03  0.00000000000E+00 0. -1.
        6    2    1    2  501    0  0.51382607168E+01  0.46604441022E+02 -0.21274541352E+03  0.27734709213E+03  0.17164621432E+03 0.  0.
       24    2    3    3    0    0  0.32837056193E+02 -0.24963482597E+02 -0.75243525903E+02  0.11980963607E+03  0.83614071678E+02 0.  0.
       -6    2    1    2    0  503 -0.51382607168E+01 -0.46604441022E+02 -0.24024909459E+03  0.29913334817E+03  0.17193823568E+03 0.  0.
      -24    2    5    5    0    0 -0.50517302372E+02 -0.73553985119E+02 -0.18036582637E+03  0.21917316332E+03  0.86849626546E+02 0.  0.
        5    1    3    3  501    0 -0.27698795477E+02  0.71567923619E+02 -0.13750188762E+03  0.15753745606E+03  0.47000000000E+01 0. -1.
        4    1    4    4  502    0  0.28204935802E+02  0.17722100984E+02 -0.15345340790E+00  0.33310881328E+02  0.00000000000E+00 0. -1.
       -3    1    4    4    0  502  0.46321203913E+01 -0.42685583581E+02 -0.75090072495E+02  0.86498754744E+02  0.00000000000E+00 0.  1.
       -5    1    5    5    0  503  0.45379041656E+02  0.26949544097E+02 -0.59883268219E+02  0.79960184850E+02  0.47000000000E+01 0.  1.
       13    1    6    6    0    0 -0.22796778563E+02 -0.49723029120E+02 -0.26049180302E+02  0.60585745288E+02  0.00000000000E+00 0. -1.
      -14    1    6    6    0    0 -0.27720523809E+02 -0.23830955999E+02 -0.15431664607E+03  0.15858741803E+03  0.00000000000E+00 0.  1.
</event>
<event>
12   0  0.1544783E-01  0.3087978E+03  0.7957747E-01  0.1089248E+00
       21   -1    0    0  504  503  0.00000000000E+00  0.00000000000E+00  0.21388612160E+03  0.21388612160E+03  0.00000000000E+00 0. -1.
       21   -1    0    0  501  504  0.00000000000E+00  0.00000000000E+00 -0.80429147874E+03  0.80429147874E+03  0.00000000000E+00 0. -1.
        6    2    1    2  501    0  0.88262482955E+02  0.23811926212E+03 -0.63655063319E+03  0.70749754759E+03  0.17568443969E+03 0.  0.
       24    2    3    3    0    0  0.12706329467E+03  0.21252057549E+03 -0.52474245979E+03  0.58632018425E+03  0.84300851124E+02 0.  0.
       -6    2    1    2    0  503 -0.88262482955E+02 -0.23811926212E+03  0.46145276046E+02  0.31068005274E+03  0.17292096396E+03 0.  0.
      -24    2    5    5    0    0 -0.14124722223E+01 -0.10505695437E+03  0.70499059672E+02  0.14985810497E+03  0.80301777504E+02 0.  0.
        5    1    3    3  501    0 -0.38800811716E+02  0.25598686629E+02 -0.11180817340E+03  0.12117736334E+03  0.47000000000E+01 0. -1.
      -13    1    4    4    0    0  0.58382375022E+02  0.33425825615E+02 -0.17404590703E+03  0.18659519095E+03  0.00000000000E+00 0.  1.
       14    1    4    4    0    0  0.68680919649E+02  0.17909474988E+03 -0.35069655276E+03  0.39972499331E+03  0.00000000000E+00 0. -1.
       -5    1    5    5    0  503 -0.86850010733E+02 -0.13306230775E+03 -0.24353783626E+02  0.16082194777E+03  0.47000000000E+01 0.  1.
        1    1    6    6  502    0  0.37702631500E+02 -0.66617275172E+02  0.32622601105E+02  0.83208075787E+02  0.00000000000E+00 0. -1.
       -2    1    6    6    0  502 -0.39115103722E+02 -0.38439679198E+02  0.37876458567E+02  0.66650029180E+02  0.00000000000E+00 0.  1.
</event>
<event>
12   0  0.1544783E-01  0.1886837E+03  0.7957747E-01  0.1165560E+00
       21   -1    0    0  501  503  0.00000000000E+00  0.00000000000E+00  0.33066559657E+03  0.33066559657E+03  0.00000000000E+00 0. -1.
       21   -1    0    0  503  504  0.00000000000E+00  0.00000000000E+00 -0.16288471987E+03  0.16288471987E+03  0.00000000000E+00 0. -1.
        6    2    1    2  501    0 -0.29026480203E+02  0.70578903526E+02 -0.59839084580E+02  0.19794503268E+03  0.17256187801E+03 0.  0.
       24    2    3    3    0    0  0.21412103696E+02  0.79240318621E+02  0.45560625153E+01  0.11555634519E+03  0.81209635682E+02 0.  0.
       -6    2    1    2    0  504  0.29026480203E+02 -0.70578903526E+02  0.22761996128E+03  0.29560528376E+03  0.17247527023E+03 0.  0.
      -24    2    5    5    0    0 -0.39447509943E+02 -0.32184014470E+02  0.71135164303E+02  0.12046980330E+03  0.82830218393E+02 0.  0.
        5    1    3    3  501    0 -0.50438583900E+02 -0.86614150943E+01 -0.64395147096E+02  0.82388687492E+02  0.47000000000E+01 0. -1.
        2    1    4    4  502    0  0.22871018490E+02  0.89409187171E+01  0.31774358940E+02  0.40157607005E+02  0.00000000000E+00 0. -1.
       -1    1    4    4    0  502 -0.14589147942E+01  0.70299399904E+02 -0.27218296425E+02  0.75398738182E+02  0.00000000000E+00 0.  1.
       -5    1    5    5    0  504  0.68473990146E+02 -0.38394889056E+02  0.15648479697E+03  0.17513548046E+03  0.47000000000E+01 0.  1.
       13    1    6    6    0    0 -0.30208454271E+02 -0.15096318549E+02  0.88306077973E+02  0.94543180347E+02  0.00000000000E+00 0. -1.
      -14    1    6    6    0    0 -0.92390556718E+01 -0.17087695921E+02 -0.17170913670E+02  0.25926622955E+02  0.00000000000E+00 0.  1.
</event>
<event>
12   0  0.1544783E-01  0.1918506E+03  0.7957747E-01  0.1162807E+00
       21   -1    0    0  504  503  0.00000000000E+00  0.00000000000E+00  0.14265792960E+03  0.14265792960E+03  0.00000000000E+00 0.  1.
       21   -1    0    0  501  504  0.00000000000E+00  0.00000000000E+00 -0.26024365533E+03  0.26024365533E+03  0.00000000000E+00 0. -1.
        6    2    1    2  501    0  0.81412473485E+02  0.75753779098E+01 -0.37292501534E+02  0.19544154082E+03  0.17355485594E+03 0.  0.
       24    2    3    3    0    0  0.99413904722E+02 -0.42526391350E+02 -0.75816335709E+01  0.13429365055E+03  0.79282312008E+02 0.  0.
       -6    2    1    2    0  503 -0.81412473485E+02 -0.75753779098E+01 -0.80293224201E+02  0.20746004410E+03  0.17293724543E+03 0.  0.
      -24    2    5    5    0    0 -0.30629661329E+02  0.28369505862E+02 -0.10713105131E+03  0.13953885710E+03  0.79063426887E+02 0.  0.
        5    1    3    3  501    0 -0.18001431237E+02  0.50101769260E+02 -0.29710867963E+02  0.61147890272E+02  0.47000000000E+01 0. -1.
        4    1    4    4  502    0  0.34622370433E+02 -0.57909041079E+02 -0.48901576991E+01  0.67646723612E+02  0.00000000000E+00 0. -1.
       -3    1    4    4    0  502  0.64791534288E+02  0.15382649728E+02 -0.26914758718E+01  0.66646926939E+02  0.00000000000E+00 0.  1.
       -5    1    5    5    0  503 -0.50782812155E+02 -0.35944883772E+02  0.26837827108E+02  0.67921187001E+02  0.47000000000E+01 0.  1.
       11    1    6    6    0    0 -0.22016287242E+02 -0.25345690112E+02 -0.53395907816E+02  0.63073321482E+02  0.00000000000E+00 0. -1.
      -12    1    6    6    0    0 -0.86133740874E+01  0.53715195974E+02 -0.53735143493E+02  0.76465535622E+02  0.00000000000E+00 0.  1.
</event>
<event>
12   0  0.1544783E-01  0.2023928E+03  0.7957747E-01  0.1154048E+00
       21   -1    0    0  501  503  0.00000000000E+00  0.00000000000E+00  0.95698469038E+03  0.95698469038E+03  0.00000000000E+00 0.  1.
       21   -1    0    0  503  504  0.00000000000E+00  0.00000000000E+00 -0.43218817731E+02  0.43218817731E+02  0.00000000000E+00 0.  1.
        6    2    1    2  501    0  0.76962765150E+02  0.70375326061E+02  0.52919189832E+03  0.56562327664E+03  0.17032225955E+03 0.  0.
       24    2    3    3    0    0  0.57399973673E+02  0.87346537011E+02  0.23180776487E+03  0.26707656734E+03  0.81675445883E+02 0.  0.
       -6    2    1    2    0  504 -0.76962765150E+02 -0.70375326061E+02  0.38457397433E+03  0.43458023146E+03  0.17345570649E+03 0.  0.
      -24    2    5    5    0    0 -0.83102919813E+02 -0.30790470332E+01  0.14506283378E+03  0.18567429117E+03  0.80722616681E+02 0.  0.
        5    1    3    3  501    0  0.19562791477E+02 -0.16971210951E+02  0.29738413344E+03  0.29854670930E+03  0.47000000000E+01 0. -1.
        4    1    4    4  502    0 -0.10901549077E+02  0.21168545066E+02  0.10995655377E+03  0.11250508783E+03  0.00000000000E+00 0. -1.
       -3    1    4    4    0  502  0.68301522751E+02  0.66177991945E+02  0.12185121111E+03  0.15457147951E+03  0.00000000000E+00 0.  1.
       -5    1    5    5    0  504  0.61401546630E+01 -0.67296279028E+02  0.23951114054E+03  0.24890594029E+03  0.47000000000E+01 0.  1.
       11    1    6    6    0    0 -0.80832567081E+02  0.26286612491E+02  0.11967747630E+03  0.14679096781E+03  0.00000000000E+00 0. -1.
      -12    1    6    6    0    0 -0.22703527316E+01 -0.29365659524E+02  0.25385357483E+02  0.38883323358E+02  0.00000000000E+00 0.  1.
</event>
<event>
12   0  0.1544783E-01  0.2056663E+03  0.7957747E-01  0.1151447E+00
       21   -1    0    0  501  503  0.00000000000E+00  0.00000000000E+00  0.80465392741E+02  0.80465392741E+02  0.00000000000E+00 0. -1.
       21   -1    0    0  503  504  0.00000000000E+00  0.00000000000E+00 -0.53597182566E+03  0.53597182566E+03  0.00000000000E+00 0. -1.
        6    2    1    2  501    0 -0.10425442063E+03  0.17272141619E+02 -0.29425647993E+03  0.35900628692E+03  0.17644071802E+03 0.  0.
       24    2    3    3    0    0  0.15603666839E+02 -0.98853665404E+01 -0.10594678440E+03  0.13409269727E+03  0.80093292141E+02 0.  0.
       -6    2    1    2    0  504  0.10425442063E+03 -0.17272141619E+02 -0.16124995299E+03  0.25743093147E+03  0.17059257324E+03 0.  0.
      -24    2    5    5    0    0  0.58336680320E+02  0.43299005906E+02 -0.14134360867E+03  0.17871844624E+03  0.81757538686E+02 0.  0.
        5    1    3    3  501    0 -0.11985808747E+03  0.27157508159E+02 -0.18830969552E+03  0.22491358965E+03  0.47000000000E+01 0. -1.
      -11    1    4    4    0    0 -0.51144918261E+01  0.24431663777E+02 -0.49715252483E+01  0.25451528144E+02  0.00000000000E+00 0.  1.
       12    1    4    4    0    0  0.20718158665E+02 -0.34317030318E+02 -0.10097525915E+03  0.10864116913E+03  0.00000000000E+00 0. -1.
       -5    1    5    5    0  504  0.45917740311E+02 -0.60571147525E+02 -0.19906344324E+02  0.78712485237E+02  0.47000000000E+01 0.  1.
        3    1    6    6  502    0 -0.12367644915E+02  0.17525335467E+02 -0.76273643479E+02  0.79232346384E+02  0.00000000000E+00 0. -1.
       -4    1    6    6    0  502  0.70704325234E+02  0.25773670439E+02 -0.65069965186E+02  0.99486099854E+02  0.00000000000E+00 0.  1.
</event>
<event>
12   0  0.1544783E-01  0.3010080E+03  0.7957747E-01  0.1092959E+00
       21   -1    0    0  501  503  0.00000000000E+00  0.00000000000E+00  0.35732216728E+03  0.35732216728E+03  0.00000000000E+00 0.  1.
       21   -1    0    0  503  504  0.00000000000E+00  0.00000000000E+00 -0.31555798996E+03  0.31555798996E+03  0.00000000000E+00 0.  1.
        6    2    1    2  501    0 -0.24455837911E+03  0.29114424726E+02  0.17023197938E+03  0.34560386144E+03  0.17264603013E+03 0.  0.
       24    2    3    3    0    0 -0.14932659659E+03  0.43960122181E+01  0.29575354465E+02  0.17388761745E+03  0.83931189299E+02 0.  0.
       -6    2    1    2    0  504  0.24455837911E+03 -0.29114424726E+02 -0.12846780207E+03  0.32727629579E+03  0.17305879665E+03 0.  0.
      -24    2    5    5    0    0  0.23754343430E+03 -0.69284358111E+02 -0.10710152501E+03  0.28100059164E+03  0.79141584439E+02 0.  0.
        5    1    3    3  501    0 -0.95231782517E+02  0.24718412508E+02  0.14065662492E+03  0.17171624400E+03  0.47000000000E+01 0. -1.
      -13    1    4    4    0    0 -0.10862883553E+03  0.23811839356E+02  0.52867872686E+02  0.12313504605E+03  0.00000000000E+00 0.  1.
       14    1    4    4    0    0 -0.40697761057E+02 -0.19415827138E+02 -0.23292518222E+02  0.50752571400E+02  0.00000000000E+00 0. -1.
       -5    1    5    5    0  504  0.70149448081E+01  0.40169933384E+02 -0.21366277058E+02  0.46275704145E+02  0.47000000000E+01 0.  1.
        1    1    6    6  502    0  0.51134837567E+02  0.85958105119E+00 -0.55054570604E+02  0.75143304672E+02  0.00000000000E+00 0. -1.
       -2    1    6    6    0  502  0.18640859673E+03 -0.70143939162E+02 -0.52046954405E+02  0.20585728697E+03  0.00000000000E+00 0.  1.
</event>
<event>
12   0  0.1544783E-01  0.1986851E+03  0.7957747E-01  0.1157061E+00
       21   -1    0    0  504  503  0.00000000000E+00  0.00000000000E+00  0.60476668459E+03  0.60476668459E+03  0.00000000000E+00 0.  1.
       21   -1    0    0  501  504  0.00000000000E+00  0.00000000000E+00 -0.69132799603E+02  0.69132799603E+02  0.00000000000E+00 0. -1.
        6    2    1    2  501    0 -0.29612853612E+02  0.82198959592E+02  0.18034232697E+03  0.26832656039E+03  0.17844382325E+03 0.  0.
       24    2    3    3    0    0 -0.33054844253E+02  0.56060020583E+02  0.20695425468E+03  0.23057240659E+03  0.78091116762E+02 0.  0.
       -6    2    1    2    0  503  0.29612853612E+02 -0.82198959592E+02  0.35529155802E+03  0.40557292380E+03  0.17499632930E+03 0.  0.
      -24    2    5    5    0    0 -0.36378547521E+01 -0.11621745776E+03  0.30347695822E+03  0.33507674961E+03  0.81599218642E+02 0.  0.
        5    1    3    3  501    0  0.34419906414E+01  0.26138939010E+02 -0.26611927711E+02  0.37754153793E+02  0.47000000000E+01 0. -1.
      -11    1    4    4    0    0  0.21553552122E+02  0.38792826576E+02  0.91152371154E+02  0.10138142714E+03  0.00000000000E+00 0.  1.
       12    1    4    4    0    0 -0.54608396375E+02  0.17267194006E+02  0.11580188352E+03  0.12919097945E+03  0.00000000000E+00 0. -1.
       -5    1    5    5    0  503  0.33250708364E+02  0.34018498163E+02  0.51814599796E+02  0.70496174194E+02  0.47000000000E+01 0.  1.
        1    1    6    6  502    0  0.20613763338E+02 -0.63120375509E+01  0.17559850042E+02  0.27804988590E+02  0.00000000000E+00 0. -1.
       -2    1    6    6    0  502 -0.24251618090E+02 -0.10990542020E+03  0.28591710818E+03  0.30727176102E+03  0.00000000000E+00 0.  1.
</event>
<event>
12   0  0.1544783E-01  0.2256759E+03  0.7957747E-01  0.1136620E+00
       21   -1    0    0  504  503  0.00000000000E+00  0.00000000000E+00  0.27173742339E+03  0.27173742339E+03  0.00000000000E+00 0. -1.
       21   -1    0    0  501  504  0.00000000000E+00  0.00000000000E+00 -0.21164889464E+03  0.21164889464E+03  0.00000000000E+00 0.  1.
        6    2    1    2  501    0 -0.14076947887E+03 -0.31073097412E+02  0.11279074005E+03  0.25229218289E+03  0.17363182583E+03 0.  0.
       24    2    3    3    0    0 -0.24235672319E+02  0.32656875979E+02  0.72116363451E+02  0.11330249805E+03  0.77348864416E+02 0.  0.
       -6    2    1    2    0  503  0.14076947887E+03  0.31073097412E+02 -0.52702211312E+02  0.23109413514E+03  0.17275819128E+03 0.  0.
      -24    2    5    5    0    0  0.25690383577E+02 -0.45293789440E+02 -0.56444321514E+02  0.92850896718E+02  0.52190079708E+02 0.  0.
        5    1    3    3  501    0 -0.11653380655E+03 -0.63729973391E+02  0.40674376604E+02  0.13898968483E+03  0.47000000000E+01 0. -1.
        4    1    4    4  502    0 -0.17501165363E+02 -0.13882270777E+02  0.61029522658E+02  0.64989313482E+02  0.00000000000E+00 0. -1.
       -3    1    4    4    0  502 -0.67345069559E+01  0.46539146756E+02  0.11086840792E+02  0.48313184572E+02  0.00000000000E+00 0.  1.
       -5    1    5    5    0  503  0.11507909529E+03  0.76366886853E+02  0.37421102017E+01  0.13824323842E+03  0.47000000000E+01 0.  1.
       13    1    6    6    0    0  0.21996315684E+02 -0.26750202270E+02 -0.63774867939E+02  0.72571654286E+02  0.00000000000E+00 0. -1.
      -14    1    6    6    0    0  0.36940678932E+01 -0.18543587170E+02  0.73305464249E+01  0.20279242432E+02  0.00000000000E+00 0.  1.
</event>
<event>
12   0  0.1544783E-01  0.1828409E+03  0.7957747E-01  0.1170798E+00
        1   -1    0    0  502    0  0.00000000000E+00  0.00000000000E+00  0.24945922074E+03  0.24945922074E+03  0.00000000000E+00 0.  1.
       -1   -1    0    0    0  501  0.00000000000E+00  0.00000000000E+00 -0.14429814485E+03  0.14429814485E+03  0.00000000000E+00 0. -1.
        6    2    1    2  502    0  0.23593402600E+02 -0.53447553628E+02  0.58864764945E-01  0.18299117522E+03  0.17341417794E+03 0.  0.
       24    2    3    3    0    0  0.20423161939E+01  0.29843689895E+01 -0.58075510548E+02  0.99022688225E+02  0.80122720525E+02 0.  0.
       -6    2    1    2    0  501 -0.23593402600E+02  0.53447553628E+02  0.10510221113E+03  0.21076619036E+03  0.17309714781E+03 0.  0.
      -24    2    5    5    0    0 -0.71027135441E+02  0.56745387370E+02  0.37268784450E+02  0.12779451753E+03  0.81716482170E+02 0.  0.
        5    1    3    3  502    0  0.21551086406E+02 -0.56431922617E+02  0.58134375313E+02  0.83968486997E+02  0.47000000000E+01 0. -1.
      -13    1    4    4    0    0  0.28615062639E+02  0.12710538479E+02  0.32543254061E+01  0.31479679670E+02  0.00000000000E+00 0.  1.
       14    1    4    4    0    0 -0.26572746445E+02 -0.97261694893E+01 -0.61329835954E+02  0.67543008556E+02  0.00000000000E+00 0. -1.
       -5    1    5    5    0  501  0.47433732841E+02 -0.32978337428E+01  0.67833426679E+02  0.82971672839E+02  0.47000000000E+01 0.  1.
        3    1    6    6  503    0 -0.47498157715E+02  0.10520518133E+02  0.54578906544E+02  0.73113701367E+02  0.00000000000E+00 0. -1.
       -4    1    6    6    0  503 -0.23528977726E+02  0.46224869237E+02 -0.17310122093E+02  0.54680816158E+02  0.00000000000E+00 0.  1.
</event>
<event>
12   0  0.1544783E-01  0.1904379E+03  0.7957747E-01  0.1164028E+00
       21   -1    0    0  504  503  0.00000000000E+00  0.00000000000E+00  0.17583333430E+03  0.17583333430E+03  0.00000000000E+00 0. -1.
       21   -1    0    0  501  504  0.00000000000E+00  0.00000000000E+00 -0.20373400104E+03  0.20373400104E+03  0.00000000000E+00 0. -1.
        6    2    1    2  501    0  0.26921281461E+02  0.70044424315E+02 -0.64698692009E+01  0.18792742678E+03  0.17217398687E+03 0.  0.
       24    2    3    3    0    0  0.81841970434E+02  0.49935318161E+02  0.17635235449E+02  0.12449396323E+03  0.77434496365E+02 0.  0.
       -6    2    1    2    0  503 -0.26921281461E+02 -0.70044424315E+02 -0.21430797540E+02  0.19163990856E+03  0.17503027937E+03 0.  0.
      -24    2    5    5    0    0  0.36660821086E+02 -0.20388611882E+02 -0.52028462186E+02  0.10522989435E+03  0.81281353896E+02 0.  0.
        5    1    3    3  501    0 -0.54920688972E+02  0.20109106154E+02 -0.24105104650E+02  0.63433463548E+02  0.47000000000E+01 0. -1.
        2    1    4    4  502    0  0.33400253837E+02  0.34604311647E+02 -0.28465765449E+02  0.55886806524E+02  0.00000000000E+00 0. -1.
       -1    1    4    4    0  502  0.48441716596E+02  0.15331006514E+02  0.46101000898E+02  0.68607156706E+02  0.00000000000E+00 0.  1.
       -5    1    5    5    0  503 -0.63582102547E+02 -0.49655812433E+02  0.30597664646E+02  0.86410014203E+02  0.47000000000E+01 0.  1.
       13    1    6    6    0    0  0.15682880162E+02  0.12964124703E+01  0.20984013514E+02  0.26229034268E+02  0.00000000000E+00 0. -1.
      -14    1    6    6    0    0  0.20977940924E+02 -0.21685024352E+02 -0.73012475700E+02  0.79000860087E+02  0.00000000000E+00 0.  1.
</event>
<event>
12   0  0.1544783E-01  0.1888190E+03  0.7957747E-01  0.1165441E+00
        2   -1    0    0  502    0  0.00000000000E+00  0.00000000000E+00  0.42163084647E+03  0.42163084647E+03  0.00000000000E+00 0.  1.
       -2   -1    0    0    0  501  0.00000000000E+00  0.00000000000E+00 -0.14031613834E+03  0.14031613834E+03  0.00000000000E+00 0. -1.
        6    2    1    2  502    0  0.61633058515E+02 -0.46192052477E+02  0.31805636807E+03  0.37020473790E+03  0.17308770920E+03 0.  0.
       24    2    3    3    0    0  0.27025838089E+02 -0.96331851369E+02  0.21366926768E+03  0.24924848190E+03  0.80374301002E+02 0.  0.
       -6    2    1    2    0  501 -0.61633058515E+02  0.46192052477E+02 -0.36741659947E+02  0.19174224691E+03  0.17170556211E+03 0.  0.
      -24    2    5    5    0    0  0.32251337174E+02  0.29731731119E+02 -0.25486996310E+02  0.95648649897E+02  0.81086081798E+02 0.  0.
        5    1    3    3  502    0  0.34607220426E+02  0.50139798892E+02  0.10438710039E+03  0.12095625600E+03  0.47000000000E+01 0. -1.
        4    1    4    4  503    0  0.10687487603E+02 -0.50835127582E+02  0.31448115718E+02  0.60724102049E+02  0.00000000000E+00 0. -1.
       -3    1    4    4    0  503  0.16338350486E+02 -0.45496723787E+02  0.18222115197E+03  0.18852437985E+03  0.00000000000E+00 0.  1.
       -5    1    5    5    0  501 -0.93884395689E+02  0.16460321358E+02 -0.11254663637E+02  0.96093597012E+02  0.47000000000E+01 0.  1.
       11    1    6    6    0    0  0.17298840848E+02 -0.26120083710E+02  0.24687859533E+01  0.31426160627E+02  0.00000000000E+00 0. -1.
      -12    1    6    6    0    0  0.14952496326E+02  0.55851814829E+02 -0.27955782263E+02  0.64222489270E+02  0.00000000000E+00 0.  1.
</event>
<event>
12   0  0.1544783E-01  0.1765977E+03  0.7957747E-01  0.1176638E+00
       21   -1    0    0  504  503  0.00000000000E+00  0.00000000000E+00  0.11596802562E+03  0.11596802562E+03  0.00000000000E+00 0.  1.
       21   -1    0    0  501  504  0.00000000000E+00  0.00000000000E+00 -0.49554396768E+03  0.49554396768E+03  0.00000000000E+00 0.  1.
        6    2    1    2  501    0 -0.15507447617E+02  0.24729858306E+02 -0.39664010901E+03  0.43409174142E+03  0.17395464084E+03 0.  0.
       24    2    3    3    0    0 -0.40930756132E+02  0.73669008079E+02 -0.30776540217E+03  0.32939127097E+03  0.81710568905E+02 0.  0.
       -6    2    1    2    0  503  0.15507447617E+02 -0.24729858306E+02  0.17064166941E+02  0.17742025188E+03  0.17416863427E+03 0.  0.
      -24    2    5    5    0    0 -0.38207118889E+02 -0.53445792271E+02  0.41381693788E+02  0.11166850947E+03  0.80256929803E+02 0.  0.
        5    1    3    3  501    0  0.25423308515E+02 -0.48939149773E+02 -0.88874706839E+02  0.10470047045E+03  0.47000000000E+01 0. -1.
        2    1    4    4  502    0 -0.23192687156E+02  0.40909752698E+00 -0.17654475695E+03  0.17806212203E+03  0.00000000000E+00 0. -1.
       -1    1    4    4    0  502 -0.17738068976E+02  0.73259910552E+02 -0.13122064522E+03  0.15132914894E+03  0.00000000000E+00 0.  1.
       -5    1    5    5    0  503  0.53714566505E+02  0.28715933965E+02 -0.24317526847E+02  0.65751742413E+02  0.47000000000E+01 0.  1.
       13    1    6    6    0    0 -0.16947177607E+02 -0.99968733242E+01 -0.23557639346E+02  0.30693756314E+02  0.00000000000E+00 0. -1.
      -14    1    6    6    0    0 -0.21259941282E+02 -0.43448918947E+02  0.64939333134E+02  0.80974753157E+02  0.00000000000E+00 0.  1.
</event>
<event>
12   0  0.1544783E-01  0.2705615E+03  0.7957747E-01  0.1108727E+00
       21   -1    0    0  501  503  0.00000000000E+00  0.00000000000E+00  0.11268603624E+04  0.11268603624E+04  0.00000000000E+00 0. -1.
       21   -1    0    0  503  504  0.00000000000E+00  0.00000000000E+00 -0.71025105219E+02  0.71025105219E+02  0.00000000000E+00 0. -1.
        6    2    1    2  501    0 -0.16356145061E+03 -0.12747341554E+03  0.70772853435E+03  0.75768278825E+03  0.17378639038E+03 0.  0.
       24    2    3    3    0    0 -0.18745264498E+03 -0.85046296031E+02  0.55340346508E+03  0.59579033431E+03  0.79620102454E+02 0.  0.
       -6    2    1    2    0  504  0.16356145061E+03  0.12747341554E+03  0.34810672279E+03  0.44020267933E+03  0.17204153173E+03 0.  0.
      -24    2    5    5    0    0  0.48997708176E+02  0.97984352839E+02  0.11115487611E+03  0.17532020814E+03  0.79875278340E+02 0.  0.
        5    1    3    3  501    0  0.23891194366E+02 -0.42427119505E+02  0.15432506927E+03  0.16189245394E+03  0.47000000000E+01 0. -1.
        2    1    4    4  502    0 -0.13505785807E+03 -0.94802357740E+02  0.45302369011E+03  0.48213958131E+03  0.00000000000E+00 0. -1.
       -1    1    4    4    0  502 -0.52394786912E+02  0.97560617083E+01  0.10037977497E+03  0.11365075300E+03  0.00000000000E+00 0.  1.
       -5    1    5    5    0  504  0.11456374244E+03  0.29489062698E+02  0.23695184668E+03  0.26488247119E+03  0.47000000000E+01 0.  1.
       13    1    6    6    0    0  0.68735536185E+02  0.83085347850E+02  0.10341664201E+03  0.14940800114E+03  0.00000000000E+00 0. -1.
      -14    1    6    6    0    0 -0.19737828009E+02  0.14899004989E+02  0.77382341055E+01  0.25912206993E+02  0.00000000000E+00 0.  1.
</event>
<event>
12   0  0.1544783E-01  0.3381695E+03  0.7957747E-01  0.1076251E+00
       21   -1    0    0  504  503  0.00000000000E+00  0.00000000000E+00  0.54645529138E+03  0.54645529138E+03  0.00000000000E+00 0. -1.
       21   -1    0    0  501  504  0.00000000000E+00  0.00000000000E+00 -0.34063280490E+03  0.34063280490E+03  0.00000000000E+00 0. -1.
        6    2    1    2  501    0  0.12483295986E+03 -0.26249766234E+03 -0.17279936631E+03  0.37976077026E+03  0.17283035332E+03 0.  0.
       24    2    3    3    0    0  0.39532391499E+02 -0.23330319529E+03 -0.12363679935E+03  0.27696217173E+03  0.73680360395E+02 0.  0.
       -6    2    1    2    0  503 -0.12483295986E+03  0.26249766234E+03  0.37862185280E+03  0.50732732602E+03  0.17186686041E+03 0.  0.
      -24    2    5    5    0    0 -0.11619402724E+03  0.99237678726E+02  0.21811970722E+03  0.27817348655E+03  0.80343718467E+02 0.  0.
        5    1    3    3  501    0  0.85300568357E+02 -0.29194467053E+02 -0.49162566962E+02  0.10279859853E+03  0.47000000000E+01 0.  1.
      -11    1    4    4    0    0  0.57926578467E+02 -0.17252765822E+03 -0.74407239334E+02  0.19661566217E+03  0.00000000000E+00 0.  1.
       12    1    4    4    0    0 -0.18394186968E+02 -0.60775537071E+02 -0.49229560015E+02  0.80346509568E+02  0.00000000000E+00 0. -1.
       -5    1    5    5    0  503 -0.86389326172E+01  0.16325998362E+03  0.16050214558E+03  0.22915383947E+03  0.47000000000E+01 0.  1.
        1    1    6    6  502    0 -0.16013077710E+02  0.56343731416E+02  0.11021103327E+03  0.12480988174E+03  0.00000000000E+00 0. -1.
       -2    1    6    6    0  502 -0.10018094953E+03  0.42893947310E+02  0.10790867395E+03  0.15336360480E+03  0.00000000000E+00 0.  1.
</event>
<event>
12   0  0.1544783E-01  0.1773573E+03  0.7957747E-01  0.1175913E+00
       21   -1    0    0  501  503  0.00000000000E+00  0.00000000000E+00  0.27007318497E+03  0.27007318497E+03  0.00000000000E+00 0.  1.
       21   -1    0    0  503  504  0.00000000000E+00  0.00000000000E+00 -0.11648598235E+03  0.11648598235E+03  0.00000000000E+00 0.  1.
        6    2    1    2  501    0 -0.24227035941E+02 -0.28413723725E+02  0.88589024601E+02  0.19825138667E+03  0.17338197158E+03 0.  0.
       24    2    3    3    0    0 -0.29957898637E+02  0.11187849212E+02 -0.14467585785E+02  0.87599308918E+02  0.80260103561E+02 0.  0.
       -6    2    1    2    0  504  0.24227035941E+02  0.28413723725E+02  0.64998178023E+02  0.18830778065E+03  0.17274480640E+03 0.  0.
      -24    2    5    5    0    0 -0.71453876517E+01  0.30121045111E+02  0.10325420026E+03  0.13858095543E+03  0.87091431345E+02 0.  0.
        5    1    3    3  501    0  0.57308626965E+01 -0.39601572937E+02  0.10305661039E+03  0.11065207775E+03  0.47000000000E+01 0. -1.
        4    1    4    4  502    0 -0.20338904652E+02  0.34266155551E+02 -0.36676535262E+02  0.54157258956E+02  0.00000000000E+00 0. -1.
       -3    1    4    4    0  502 -0.96189939848E+01 -0.23078306340E+02  0.22208949477E+02  0.33442049962E+02  0.00000000000E+00 0.  1.
       -5    1    5    5    0  504  0.31372423592E+02 -0.17073213858E+01 -0.38256022239E+02  0.49726825214E+02  0.47000000000E+01 0.  1.
       11    1    6    6    0    0 -0.31204605354E+02 -0.27719235336E+01  0.43732331764E+01  0.31631252327E+02  0.00000000000E+00 0. -1.
      -12    1    6    6    0    0  0.24059217702E+02  0.32892968644E+02  0.98880967085E+02  0.10694970311E+03  0.00000000000E+00 0.  1.
</event>
<event>
12   0  0.1544783E-01  0.3145313E+03  0.7957747E-01  0.1086591E+00
       -2   -1    0    0    0  501  0.00000000000E+00  0.00000000000E+00  0.66747375774E+02  0.66747375774E+02  0.00000000000E+00 0. -1.
        2   -1    0    0  502    0  0.00000000000E+00  0.00000000000E+00 -0.15280300613E+04  0.15280300613E+04  0.00000000000E+00 0.  1.
        6    2    1    2  502    0 -0.16318809581E+03 -0.20424255583E+03 -0.87238694859E+03  0.92790693910E+03  0.17778336067E+03 0.  0.
       24    2    3    3    0    0 -0.85465301160E+02 -0.18227361623E+03 -0.47122129953E+03  0.51866442530E+03  0.80220222287E+02 0.  0.
       -6    2    1    2    0  501  0.16318809581E+03  0.20424255583E+03 -0.58889573689E+03  0.66687049793E+03  0.17196713598E+03 0.  0.
      -24    2    5    5    0    0  0.19234876884E+02  0.12203813190E+03 -0.29213760502E+03  0.32691818454E+03  0.79169646873E+02 0.  0.
        5    1    3    3  502    0 -0.77722794648E+02 -0.21968939599E+02 -0.40116564906E+03  0.40924251380E+03  0.47000000000E+01 0. -1.
      -11    1    4    4    0    0  0.90962056946E+01 -0.36044406645E+00 -0.80782452566E+01  0.12170822667E+02  0.00000000000E+00 0.  1.
       12    1    4    4    0    0 -0.94561506855E+02 -0.18191317216E+03 -0.46314305427E+03  0.50649360263E+03  0.00000000000E+00 0. -1.
       -5    1    5    5    0  501  0.14395321892E+03  0.82204423923E+02 -0.29675813187E+03  0.33995231340E+03  0.47000000000E+01 0.  1.
        1    1    6    6  503    0 -0.28412107759E+02  0.34297712104E+02 -0.64883919537E+02  0.78698817891E+02  0.00000000000E+00 0. -1.
       -2    1    6    6    0  503  0.47646984643E+02  0.87740419801E+02 -0.22725368549E+03  0.24821936665E+03  0.00000000000E+00 0.  1.
</event>
<event>
12   0  0.1544783E-01  0.2747279E+03  0.7957747E-01  0.1106439E+00
       21   -1    0    0  504  503  0.00000000000E+00  0.00000000000E+00  0.49140427241E+03  0.49140427241E+03  0.00000000000E+00 0. -1.
       21   -1    0    0  501  504  0.00000000000E+00  0.00000000000E+00 -0.15404633835E+03  0.15404633835E+03  0.00000000000E+00 0.  1.
        6    2    1    2  501    0 -0.98524628801E+02 -0.18971825583E+03  0.14435034390E+03  0.30970169104E+03  0.17140010669E+03 0.  0.
       24    2    3    3    0    0 -0.85524177319E+02 -0.14013920829E+03  0.31442153970E+02  0.18561525726E+03  0.80690966512E+02 0.  0.
       -6    2    1    2    0  503  0.98524628801E+02  0.18971825583E+03  0.19300759016E+03  0.33574891972E+03  0.17255517424E+03 0.  0.
      -24    2    5    5    0    0  0.79429623491E+02  0.35613771204E+02  0.10409240746E+03  0.15674944730E+03  0.78471358796E+02 0.  0.
        5    1    3    3  501    0 -0.13000451483E+02 -0.49579047544E+02  0.11290818993E+03  0.12408643378E+03  0.47000000000E+01 0. -1.
      -13    1    4    4    0    0 -0.51301962759E+02 -0.15536283453E+02  0.62584864192E+01  0.53966991196E+02  0.00000000000E+00 0.  1.
       14    1    4    4    0    0 -0.34222214560E+02 -0.12460292484E+03  0.25183667551E+02  0.13164826607E+03  0.00000000000E+00 0. -1.
       -5    1    5    5    0  503  0.19095005310E+02  0.15410448463E+03  0.88915182697E+02  0.17899947242E+03  0.47000000000E+01 0.  1.
        1    1    6    6  502    0  0.66518233314E+00  0.32201892365E+02  0.55411743650E+02  0.64092633537E+02  0.00000000000E+00 0. -1.
       -2    1    6    6    0  502  0.78764441158E+02  0.34118788389E+01  0.48680663815E+02  0.92656813767E+02  0.00000000000E+00 0.  1.
</event>
<event>
12   0  0.1544783E-01  0.1917388E+03  0.7957747E-01  0.1162904E+00
       21   -1    0    0  501  503  0.00000000000E+00  0.00000000000E+00  0.16658167012E+03  0.16658167012E+03  0.00000000000E+00 0. -1.
       21   -1    0    0  503  504  0.00000000000E+00  0.00000000000E+00 -0.22863850839E+03  0.22863850839E+03  0.00000000000E+00 0. -1.
        6    2    1    2  501    0  0.31528185784E+02 -0.74319318910E+02 -0.69881903070E+02  0.20407657942E+03  0.17391487063E+03 0.  0.
       24    2    3    3    0    0 -0.19787307125E+02 -0.13067806099E+02 -0.88229491251E+02  0.12195623099E+03  0.80787214772E+02 0.  0.
       -6    2    1    2    0  504 -0.31528185784E+02  0.74319318910E+02  0.78250648039E+01  0.19114359909E+03  0.17308164597E+03 0.  0.
      -24    2    5    5    0    0  0.36332583228E+01  0.88457133190E+02 -0.43880051665E+02  0.12686518892E+03  0.79570423201E+02 0.  0.
        5    1    3    3  501    0  0.51315492909E+02 -0.61251512811E+02  0.18347588180E+02  0.82120348429E+02  0.47000000000E+01 0. -1.
        2    1    4    4  502    0 -0.39650337079E+02 -0.25267760706E+02 -0.86660052283E+02  0.98592969442E+02  0.00000000000E+00 0. -1.
       -1    1    4    4    0  502  0.19863029953E+02  0.12199954607E+02 -0.15694389673E+01  0.23363261545E+02  0.00000000000E+00 0.  1.
       -5    1    5    5    0  504 -0.35161444107E+02 -0.14137814280E+02  0.51705116469E+02  0.64278410165E+02  0.47000000000E+01 0.  1.
       13    1    6    6    0    0  0.29985537399E+02  0.98952884914E+01  0.28993284587E+01  0.31708915039E+02  0.00000000000E+00 0. -1.
      -14    1    6    6    0    0 -0.26352279076E+02  0.78561844698E+02 -0.46779380124E+02  0.95156273885E+02  0.00000000000E+00 0.  1.
</event>
<event>
12   0  0.1544783E-01  0.1837140E+03  0.7957747E-01  0.1170002E+00
       21   -1    0    0  501  503  0.00000000000E+00  0.00000000000E+00  0.23034072804E+03  0.23034072804E+03  0.00000000000E+00 0. -1.
       21   -1    0    0  503  504  0.00000000000E+00  0.00000000000E+00 -0.40334749690E+03  0.40334749690E+03  0.00000000000E+00 0. -1.
        6    2    1    2  501    0  0.20670972294E+02  0.45991250781E+02  0.16796537488E+03  0.24892405456E+03  0.17665880542E+03 0.  0.
       24    2    3    3    0    0 -0.37088035087E+02  0.28953994535E+02  0.16342221446E+03  0.18835094715E+03  0.80965443048E+02 0.  0.
       -6    2    1    2    0  504 -0.20670972294E+02 -0.45991250781E+02 -0.34097214374E+03  0.38476417039E+03  0.17099409278E+03 0.  0.
      -24    2    5    5    0    0 -0.41164809789E+02 -0.83953370084E+02 -0.30252248472E+03  0.32678498312E+03  0.80782804610E+02 0.  0.
        5    1    3    3  501    0  0.57759007382E+02  0.17037256247E+02  0.45431604224E+01  0.60573107405E+02  0.47000000000E+01 0. -1.
      -13    1    4    4    0    0 -0.27661194661E+02 -0.18153793012E+02  0.23973310560E+02  0.40858554918E+02  0.00000000000E+00 0.  1.
       14    1    4    4    0    0 -0.94268404260E+01  0.47107787547E+02  0.13944890390E+03  0.14749239223E+03  0.00000000000E+00 0. -1.
       -5    1    5    5    0  504  0.20493837495E+02  0.37962119302E+02 -0.38449659022E+02  0.57979187267E+02  0.47000000000E+01 0.  1.
        1    1    6    6  502    0  0.20290045350E+02 -0.54864100417E+01 -0.84272247998E+02  0.86853891209E+02  0.00000000000E+00 0. -1.
       -2    1    6    6    0  502 -0.61454855139E+02 -0.78466960042E+02 -0.21825023672E+03  0.23993109191E+03  0.00000000000E+00 0.  1.
</event>
<event>
12   0  0.1544783E-01  0.1792799E+03  0.7957747E-01  0.1174097E+00
       21   -1    0    0  504  503  0.00000000000E+00  0.00000000000E+00  0.16329426188E+04  0.16329426188E+04  0.00000000000E+00 0.  1.
       21   -1    0    0  501  504  0.00000000000E+00  0.00000000000E+00 -0.24781597773E+02  0.24781597773E+02  0.00000000000E+00 0.  1.
        6    2    1    2  501    0 -0.20103310296E+01  0.49851779339E+02  0.42460557185E+03  0.46066750165E+03  0.17156752052E+03 0.  0.
       24    2    3    3    0    0  0.27014073831E+02  0.45974589546E+02  0.41976744573E+03  0.43061843939E+03  0.79900618140E+02 0.  0.
       -6    2    1    2    0  503  0.20103310296E+01 -0.49851779339E+02  0.11835554491E+04  0.11970567149E+04  0.17219766586E+03 0.  0.
      -24    2    5    5    0    0  0.64947757451E+01  0.28866948551E+02  0.84484325538E+03  0.84925678882E+03  0.81249519230E+02 0.  0.
        5    1    3    3  501    0 -0.29024404860E+02  0.38771897931E+01  0.48381261153E+01  0.30049062256E+02  0.47000000000E+01 0. -1.
        2    1    4    4  502    0  0.40243641248E+02  0.41559562349E+01  0.30644025128E+03  0.30909941805E+03  0.00000000000E+00 0. -1.
       -1    1    4    4    0  502 -0.13229567417E+02  0.41818633311E+02  0.11332719445E+03  0.12151902135E+03  0.00000000000E+00 0.  1.
       -5    1    5    5    0  503 -0.44844447156E+01 -0.78718727889E+02  0.33871219377E+03  0.34779992607E+03  0.47000000000E+01 0.  1.
       11    1    6    6    0    0 -0.31641258724E+01 -0.68127057847E+01  0.60381575359E+01  0.96376345165E+01  0.00000000000E+00 0. -1.
      -12    1    6    6    0    0  0.96589016176E+01  0.35679654335E+02  0.83880509784E+03  0.83961915431E+03  0.00000000000E+00 0.  1.
</event>
<event>
12   0  0.1544783E-01  0.2257182E+03  0.7957747E-01  0.1136591E+00
       21   -1    0    0  504  503  0.00000000000E+00  0.00000000000E+00  0.16005158849E+04  0.16005158849E+04  0.00000000000E+00 0. -1.
       21   -1    0    0  501  504  0.00000000000E+00  0.00000000000E+00 -0.31939209633E+02  0.31939209633E+02  0.00000000000E+00 0.  1.
        6    2    1    2  501    0 -0.12509674906E+03  0.72408085375E+02  0.73539308868E+03  0.76923808069E+03  0.17329772776E+03 0.  0.
       24    2    3    3    0    0 -0.24539660238E+02 -0.22099263322E+02  0.31407403117E+03  0.32587005602E+03  0.80363076069E+02 0.  0.
       -6    2    1    2    0  503  0.12509674906E+03 -0.72408085375E+02  0.83318358659E+03  0.86321701385E+03  0.17336838404E+03 0.  0.
      -24    2    5    5    0    0  0.70752638521E+02 -0.39448736584E+02  0.74849051003E+03  0.75722357896E+03  0.81162591446E+02 0.  0.
        5    1    3    3  501    0 -0.10055708882E+03  0.94507348696E+02  0.42131905752E+03  0.44336802467E+03  0.47000000000E+01 0. -1.
      -11    1    4    4    0    0  0.10366142971E+02 -0.67772349880E+01  0.33687123645E+01  0.12834954506E+02  0.00000000000E+00 0.  1.
       12    1    4    4    0    0 -0.34905803209E+02 -0.15322028334E+02  0.31070531880E+03  0.31303510152E+03  0.00000000000E+00 0. -1.
       -5    1    5    5    0  503  0.54344110537E+02 -0.32959348790E+02  0.84693076556E+02  0.10599343489E+03  0.47000000000E+01 0.  1.
        1    1    6    6  502    0  0.36149384236E+02  0.13145503546E+02  0.47614093145E+03  0.47769212768E+03  0.00000000000E+00 0. -1.
       -2    1    6    6    0  502  0.34603254284E+02 -0.52594240131E+02  0.27234957858E+03  0.27953145128E+03  0.00000000000E+00 0.  1.
</event>
<event>
12   0  0.1544783E-01  0.1772008E+03  0.7957747E-01  0.1176062E+00
       21   -1    0    0  504  503  0.00000000000E+00  0.00000000000E+00  0.21103421519E+03  0.21103421519E+03  0.00000000000E+00 0. -1.
       21   -1    0    0  501  504  0.00000000000E+00  0.00000000000E+00 -0.37316070788E+03  0.37316070788E+03  0.00000000000E+00 0.  1.
        6    2    1    2  501    0  0.37642986096E+01  0.40516321964E+02 -0.30792383979E+03  0.35472381847E+03  0.17133637672E+03 0.  0.
       24    2    3    3    0    0  0.30649097658E+02  0.10064281264E+02 -0.30096302992E+03  0.31324295449E+03  0.80633406302E+02 0.  0.
       -6    2    1    2    0  503 -0.37642986096E+01 -0.40516321964E+02  0.14579734711E+03  0.22947110459E+03  0.17246558825E+03 0.  0.
      -24    2    5    5    0    0  0.47375317950E+02 -0.27831383415E+02  0.14692639256E+03  0.17656049326E+03  0.81038486516E+02 0.  0.
        5    1    3    3  501    0 -0.26884799049E+02  0.30452040700E+02 -0.69608098706E+01  0.41480863982E+02  0.47000000000E+01 0. -1.
        2    1    4    4  502    0  0.35881630581E+02 -0.15302838036E+02 -0.64593322896E+02  0.75458370164E+02  0.00000000000E+00 0. -1.
       -1    1    4    4    0  502 -0.52325329227E+01  0.25367119300E+02 -0.23636970703E+03  0.23778458433E+03  0.00000000000E+00 0.  1.
       -5    1    5    5    0  503 -0.51139616560E+02 -0.12684938549E+02 -0.11290454492E+01  0.52910611332E+02  0.47000000000E+01 0.  1.
       13    1    6    6    0    0  0.22043221146E+02 -0.13274785482E+02  0.14501628557E+03  0.14728152161E+03  0.00000000000E+00 0. -1.
      -14    1    6    6    0    0  0.25332096804E+02 -0.14556597934E+02  0.19101069844E+01  0.29278971645E+02  0.00000000000E+00 0.  1.
</event>
<event>
12   0  0.1544783E-01  0.1942319E+03  0.7957747E-01  0.1160776E+00
       21   -1    0    0  501  503  0.00000000000E+00  0.00000000000E+00  0.10092831533E+04  0.10092831533E+04  0.00000000000E+00 0. -1.
       21   -1    0    0  503  504  0.00000000000E+00  0.00000000000E+00 -0.41696903913E+03  0.41696903913E+03  0.00000000000E+00 0. -1.
        6    2    1    2  501    0 -0.45324275297E+02  0.65011328781E+02  0.97814720684E+03  0.99724520857E+03  0.17732818437E+03 0.  0.
       24    2    3    3    0    0 -0.97937203239E+02  0.50407857682E+02  0.59704746660E+03  0.61222510057E+03  0.78874891449E+02 0.  0.
       -6    2    1    2    0  504  0.45324275297E+02 -0.65011328781E+02 -0.38583309270E+03  0.42900698382E+03  0.16999721747E+03 0.  0.
      -24    2    5    5    0    0  0.64169988029E+01  0.25413058682E+02 -0.13531640603E+03  0.15980251449E+03  0.80866015544E+02 0.  0.
        5    1    3    3  501    0  0.52612927942E+02  0.14603471100E+02  0.38109974024E+03  0.38502010800E+03  0.47000000000E+01 0. -1.
      -11    1    4    4    0    0 -0.46076866428E+02  0.66215209410E+02  0.32853925697E+03  0.33829805637E+03  0.00000000000E+00 0.  1.
       12    1    4    4    0    0 -0.51860336811E+02 -0.15807351729E+02  0.26850820963E+03  0.27392704420E+03  0.00000000000E+00 0. -1.
       -5    1    5    5    0  504  0.38907276494E+02 -0.90424387464E+02 -0.25051668666E+03  0.26920446933E+03  0.47000000000E+01 0.  1.
        3    1    6    6  502    0  0.20537146459E+02  0.68695788611E+01 -0.13475944928E+03  0.13648836826E+03  0.00000000000E+00 0. -1.
       -4    1    6    6    0  502 -0.14120147656E+02  0.18543479821E+02 -0.55695675065E+00  0.23314146232E+02  0.00000000000E+00 0.  1.
</event>
<event>
12   0  0.1544783E-01  0.2584747E+03  0.7957747E-01  0.1115624E+00
       21   -1    0    0  501  503  0.00000000000E+00  0.00000000000E+00  0.33769572575E+03  0.33769572575E+03  0.00000000000E+00 0.  1.
       21   -1    0    0  503  504  0.00000000000E+00  0.00000000000E+00 -0.21476248610E+03  0.21476248610E+03  0.00000000000E+00 0. -1.
        6    2    1    2  501    0 -0.11179902248E+03  0.15626017684E+03  0.13913102569E+03  0.29347643098E+03  0.17278515254E+03 0.  0.
       24    2    3    3    0    0 -0.55593304693E+02  0.88235015008E+02  0.32212200502E+01  0.13136514013E+03  0.79814725346E+02 0.  0.
       -6    2    1    2    0  504  0.11179902248E+03 -0.15626017684E+03 -0.16197786042E+02  0.25898178087E+03  0.17289572076E+03 0.  0.
      -24    2    5    5    0    0  0.13721890891E+03 -0.80721316246E+02 -0.82316875616E+01  0.17874563683E+03  0.80853460932E+02 0.  0.
        5    1    3    3  501    0 -0.56205717785E+02  0.68025161831E+02  0.13590980564E+03  0.16211129085E+03  0.47000000000E+01 0. -1.
      -13    1    4    4    0    0 -0.80249287788E+01  0.29023531052E+02  0.37451245781E+02  0.48055807632E+02  0.00000000000E+00 0.  1.
       14    1    4    4    0    0 -0.47568375914E+02  0.59211483956E+02 -0.34230025731E+02  0.83309332496E+02  0.00000000000E+00 0. -1.
       -5    1    5    5    0  504 -0.25419886436E+02 -0.75538860594E+02 -0.79660984799E+01  0.80236144045E+02  0.47000000000E+01 0.  1.
        1    1    6    6  502    0  0.57440152089E+02  0.93826184738E+01 -0.34618740219E+01  0.58304280916E+02  0.00000000000E+00 0. -1.
       -2    1    6    6    0  502  0.79778756825E+02 -0.90103934719E+02 -0.47698135398E+01  0.12044135591E+03  0.00000000000E+00 0.  1.
</event>
<event>
12   0  0.1544783E-01  0.3610971E+03  0.7957747E-01  0.1067058E+00
       21   -1    0    0  504  503  0.00000000000E+00  0.00000000000E+00  0.78159977702E+03  0.78159977702E+03  0.00000000000E+00 0. -1.
       21   -1    0    0  501  504  0.00000000000E+00  0.00000000000E+00 -0.23851705920E+03  0.23851705920E+03  0.00000000000E+00 0. -1.
        6    2    1    2  501    0 -0.30580214585E+03 -0.22653198956E+02 -0.18533953610E+02  0.35243098313E+03  0.17273091965E+03 0.  0.
       24    2    3    3    0    0 -0.24545852416E+03 -0.76496137837E+02 -0.24855794409E+02  0.27117539614E+03  0.82563543830E+02 0.  0.
       -6    2    1    2    0  503  0.30580214585E+03  0.22653198956E+02  0.56161667143E+03  0.66768585310E+03  0.19069083084E+03 0.  0.
      -24    2    5    5    0    0  0.91555106235E+02  0.54433466788E+02  0.29777338838E+03  0.32629583066E+03  0.80340764841E+02 0.  0.
        5    1    3    3  501    0 -0.60343621690E+02  0.53842938880E+02  0.63218407987E+01  0.81255586990E+02  0.47000000000E+01 0. -1.
        2    1    4    4  502    0 -0.28886599143E+02 -0.40422601878E+02  0.34486606620E+01  0.49802767122E+02  0.00000000000E+00 0. -1.
       -1    1    4    4    0  502 -0.21657192501E+03 -0.36073535959E+02 -0.28304455071E+02  0.22137262902E+03  0.00000000000E+00 0.  1.
       -5    1    5    5    0  503  0.21424703961E+03 -0.31780267832E+02  0.26384328305E+03  0.34139002243E+03  0.47000000000E+01 0.  1.
       13    1    6    6    0    0 -0.81719846524E+00 -0.96854209913E+01  0.20742916339E+01  0.99387060975E+01  0.00000000000E+00 0. -1.
      -14    1    6    6    0    0  0.92372304701E+02  0.64118887780E+02  0.29569909675E+03  0.31635712457E+03  0.00000000000E+00 0.  1.
</event>
<event>
12   0  0.1544783E-01  0.2303120E+03  0.7957747E-01  0.1133424E+00
       21   -1    0    0  501  503  0.00000000000E+00  0.00000000000E+00  0.34372030460E+03  0.34372030460E+03  0.00000000000E+00 0. -1.
       21   -1    0    0  503  504  0.00000000000E+00  0.00000000000E+00 -0.17812832669E+03  0.17812832669E+03  0.00000000000E+00 0. -1.
        6    2    1    2  501    0 -0.64950040659E+02  0.13701639707E+03  0.17875050795E+03  0.29153964088E+03  0.17335402292E+03 0.  0.
       24    2    3    3    0    0  0.64740016809E+01  0.60889280385E+01  0.73459066798E+02  0.10891496141E+03  0.79920251382E+02 0.  0.
       -6    2    1    2    0  504  0.64950040659E+02 -0.13701639707E+03 -0.13158530043E+02  0.23030899042E+03  0.17284988662E+03 0.  0.
      -24    2    5    5    0    0  0.54741261162E+01 -0.11137244458E+02 -0.36290151033E+02  0.89099545393E+02  0.80422320635E+02 0.  0.
        5    1    3    3  501    0 -0.71424042340E+02  0.13092746904E+03  0.10529144116E+03  0.18262467947E+03  0.47000000000E+01 0. -1.
        2    1    4    4  502    0 -0.23420468093E+02 -0.21350368419E+02  0.93485066296E+01  0.33041657549E+02  0.00000000000E+00 0. -1.
       -1    1    4    4    0  502  0.29894469774E+02  0.27439296458E+02  0.64110560168E+02  0.75873303857E+02  0.00000000000E+00 0.  1.
       -5    1    5    5    0  504  0.59475914543E+02 -0.12587915262E+03  0.23131620990E+02  0.14120944502E+03  0.47000000000E+01 0.  1.
       11    1    6    6    0    0 -0.83359302759E+00 -0.38384187298E+02 -0.45611808841E+02  0.59619441608E+02  0.00000000000E+00 0. -1.
      -12    1    6    6    0    0  0.63077191438E+01  0.27246942840E+02  0.93216578082E+01  0.29480103785E+02  0.00000000000E+00 0.  1.
</event>
<event>
12   0  0.1544783E-01  0.2252470E+03  0.7957747E-01  0.1136920E+00
       21   -1    0    0  504  503  0.00000000000E+00  0.00000000000E+00  0.69474318433E+02  0.69474318433E+02  0.00000000000E+00 0.  1.
       21   -1    0    0  501  504  0.00000000000E+00  0.00000000000E+00 -0.83773192724E+03  0.83773192724E+03  0.00000000000E+00 0.  1.
        6    2    1    2  501    0 -0.12059288091E+03 -0.80475473085E+02 -0.54664244188E+03  0.59121652085E+03  0.17233708412E+03 0.  0.
       24    2    3    3    0    0 -0.14851531036E+03 -0.81506113290E+02 -0.51990131024E+03  0.55225625382E+03  0.77392206153E+02 0.  0.
       -6    2    1    2    0  503  0.12059288091E+03  0.80475473085E+02 -0.22161516693E+03  0.31598972483E+03  0.17238700441E+03 0.  0.
      -24    2    5    5    0    0  0.19562778021E+00  0.59245866343E+00 -0.70825212742E+02  0.10709622364E+03  0.80330573759E+02 0.  0.
        5    1    3    3  501    0  0.27922429453E+02  0.10306402050E+01 -0.26741131637E+02  0.38960267030E+02  0.47000000000E+01 0. -1.
      -13    1    4    4    0    0 -0.84054062232E+02 -0.63331197040E+02 -0.41224972914E+03  0.42547122708E+03  0.00000000000E+00 0.  1.
       14    1    4    4    0    0 -0.64461248132E+02 -0.18174916250E+02 -0.10765158111E+03  0.12678502674E+03  0.00000000000E+00 0. -1.
       -5    1    5    5    0  503  0.12039725313E+03  0.79883014422E+02 -0.15078995419E+03  0.20889350119E+03  0.47000000000E+01 0.  1.
        3    1    6    6  502    0  0.23824412170E+02 -0.20637817695E+01 -0.78538786483E+02  0.82098738070E+02  0.00000000000E+00 0. -1.
       -4    1    6    6    0  502 -0.23628784389E+02  0.26562404329E+01  0.77135737410E+01  0.24997485570E+02  0.00000000000E+00 0.  1.
</event>
<event>
12   0  0.1544783E-01  0.2690082E+03  0.7957747E-01  0.1109591E+00
       21   -1    0    0  504  503  0.00000000000E+00  0.00000000000E+00  0.15528217527E+03  0.15528217527E+03  0.00000000000E+00 0.  1.
       21   -1    0    0  501  504  0.00000000000E+00  0.00000000000E+00 -0.74310068388E+03  0.74310068388E+03  0.00000000000E+00 0. -1.
        6    2    1    2  501    0 -0.13329849005E+03  0.15621482780E+03 -0.56912892617E+03  0.62950232036E+03  0.17376385374E+03 0.  0.
       24    2    3    3    0    0 -0.63922859284E+02  0.13592179072E+03 -0.25076008865E+03  0.30299720218E+03  0.79786072323E+02 0.  0.
       -6    2    1    2    0  503  0.13329849005E+03 -0.15621482780E+03 -0.18689582434E+02  0.26888053879E+03  0.17255690011E+03 0.  0.
      -24    2    5    5    0    0 -0.35600757628E+01 -0.55275191871E+02  0.19514603855E+01  0.97511872503E+02  0.80229272125E+02 0.  0.
        5    1    3    3  501    0 -0.69375630762E+02  0.20293037081E+02 -0.31836883752E+03  0.32650511818E+03  0.47000000000E+01 0. -1.
        2    1    4    4  502    0 -0.73114365098E+02  0.74226605267E+02 -0.18526199486E+03  0.21254953788E+03  0.00000000000E+00 0. -1.
       -1    1    4    4    0  502  0.91915058141E+01  0.61695185450E+02 -0.65498093790E+02  0.90447664298E+02  0.00000000000E+00 0.  1.
       -5    1    5    5    0  503  0.13685856581E+03 -0.10093963593E+03 -0.20641042819E+02  0.17136866629E+03  0.47000000000E+01 0.  1.
       13    1    6    6    0    0  0.34585893765E+02 -0.21091239687E+02 -0.15537124454E+02  0.43386941300E+02  0.00000000000E+00 0. -1.
      -14    1    6    6    0    0 -0.38145969528E+02 -0.34183952183E+02  0.17488584840E+02  0.54124931203E+02  0.00000000000E+00 0.  1.
</event>
<event>
12   0  0.1544783E-01  0.2144681E+03  0.7957747E-01  0.1144707E+00
       21   -1    0    0  504  503  0.00000000000E+00  0.00000000000E+00  0.69843335018E+03  0.69843335018E+03  0.00000000000E+00 0.  1.
       21   -1    0    0  501  504  0.00000000000E+00  0.00000000000E+00 -0.25205225103E+03  0.25205225103E+03  0.00000000000E+00 0. -1.
        6    2    1    2  501    0  0.11719421322E+03 -0.47658730853E+02 -0.18536245914E+03  0.28333007349E+03  0.17294753843E+03 0.  0.
       24    2    3    3    0    0  0.14531676412E+03 -0.66079533481E+02 -0.16749566304E+03  0.24496972624E+03  0.80448138310E+02 0.  0.
       -6    2    1    2    0  503 -0.11719421322E+03  0.47658730853E+02  0.63174355828E+03  0.66715552772E+03  0.17317833725E+03 0.  0.
      -24    2    5    5    0    0 -0.12684882877E+03 -0.17499379426E+02  0.40348442531E+03  0.42953584687E+03  0.72832057812E+02 0.  0.
        5    1    3    3  501    0 -0.28122550899E+02  0.18420802628E+02 -0.17866796100E+02  0.38360347253E+02  0.47000000000E+01 0. -1.
        2    1    4    4  502    0  0.83434913161E+02 -0.11382694934E+02 -0.12850758925E+03  0.15363967903E+03  0.00000000000E+00 0. -1.
       -1    1    4    4    0  502  0.61881850956E+02 -0.54696838547E+02 -0.38988073789E+02  0.91330047205E+02  0.00000000000E+00 0.  1.
       -5    1    5    5    0  503  0.96546155521E+01  0.65158110279E+02  0.22825913298E+03  0.23761968084E+03  0.47000000000E+01 0.  1.
       13    1    6    6    0    0 -0.93155519730E+02  0.21395651138E+02  0.24957275380E+03  0.26724947930E+03  0.00000000000E+00 0. -1.
      -14    1    6    6    0    0 -0.33693309040E+02 -0.38895030564E+02  0.15391167150E+03  0.16228636758E+03  0.00000000000E+00 0.  1.
</event>
<event>
12   0  0.1544783E-01  0.1740250E+03  0.7957747E-01  0.1179122E+00
       21   -1    0    0  504  503  0.00000000000E+00  0.00000000000E+00  0.17649330674E+03  0.17649330674E+03  0.00000000000E+00 0. -1.
       21   -1    0    0  501  504  0.00000000000E+00  0.00000000000E+00 -0.22773104166E+03  0.22773104166E+03  0.00000000000E+00 0. -1.
        6    2    1    2  501    0  0.22101240688E+02 -0.12818267056E+02 -0.12703241190E+03  0.21545753038E+03  0.17213930670E+03 0.  0.
       24    2    3    3    0    0 -0.25917708013E+02  0.50604674389E+01 -0.13848462964E+03  0.16274404185E+03  0.81303718187E+02 0.  0.
       -6    2    1    2    0  503 -0.22101240688E+02  0.12818267056E+02  0.75794676990E+02  0.18876681802E+03  0.17098334924E+03 0.  0.
      -24    2    5    5    0    0 -0.29744195145E+02  0.56729121366E+02  0.29196149507E+01  0.10321307733E+03  0.80879569887E+02 0.  0.
        5    1    3    3  501    0  0.48018948701E+02 -0.17878734495E+02  0.11452217737E+02  0.52713488526E+02  0.47000000000E+01 0. -1.
      -13    1    4    4    0    0 -0.14990641220E+02 -0.13032784174E+02  0.26460568836E+01  0.20039321459E+02  0.00000000000E+00 0.  1.
       14    1    4    4    0    0 -0.10927066793E+02  0.18093251612E+02 -0.14113068653E+03  0.14270472039E+03  0.00000000000E+00 0. -1.
       -5    1    5    5    0  503  0.76429544566E+01 -0.43910854310E+02  0.72875062039E+02  0.85553740691E+02  0.47000000000E+01 0.  1.
        3    1    6    6  502    0 -0.22731269303E+02 -0.17347494449E+02 -0.18362185766E+01  0.28653409334E+02  0.00000000000E+00 0. -1.
       -4    1    6    6    0  502 -0.70129258419E+01  0.74076615815E+02  0.47558335273E+01  0.74559667998E+02  0.00000000000E+00 0.  1.
</event>
<event>
12   0  0.1544783E-01  0.1956613E+03  0.7957747E-01  0.1159572E+00
       -2   -1    0    0    0  501  0.00000000000E+00  0.00000000000E+00  0.10100455775E+03  0.10100455775E+03  0.00000000000E+00 0. -1.
        2   -1    0    0  502    0  0.00000000000E+00  0.00000000000E+00 -0.37963118179E+03  0.37963118179E+03  0.00000000000E+00 0.  1.
        6    2    1    2  502    0 -0.37678037721E+02 -0.81691515651E+02 -0.12944356595E+03  0.23426909765E+03  0.17330099566E+03 0.  0.
       24    2    3    3    0    0 -0.29459875589E+02 -0.10102634548E+01 -0.12587016465E+03  0.15295574179E+03  0.81751181616E+02 0.  0.
       -6    2    1    2    0  501  0.37678037721E+02  0.81691515651E+02 -0.14918305809E+03  0.24636664189E+03  0.17420619724E+03 0.  0.
      -24    2    5    5    0    0  0.59466626522E+02  0.68486101322E+02 -0.30859676336E+02  0.12524010376E+03  0.80660636137E+02 0.  0.
        5    1    3    3  502    0 -0.82181621322E+01 -0.80681252196E+02 -0.35734012937E+01  0.81313355862E+02  0.47000000000E+01 0. -1.
        2    1    4    4  503    0  0.18479572417E+02  0.12326456016E+02 -0.87063296946E+02  0.89852400022E+02  0.00000000000E+00 0. -1.
       -1    1    4    4    0  503 -0.47939448006E+02 -0.13336719471E+02 -0.38806867707E+02  0.63103341771E+02  0.00000000000E+00 0.  1.
       -5    1    5    5    0  501 -0.21788588801E+02  0.13205414329E+02 -0.11832338175E+03  0.12112653813E+03  0.47000000000E+01 0.  1.
       13    1    6    6    0    0  0.50608014482E+02 -0.10026086330E+01 -0.19647766062E+02  0.54297431478E+02  0.00000000000E+00 0. -1.
      -14    1    6    6    0    0  0.88586120399E+01  0.69488709955E+02 -0.11211910274E+02  0.70942672282E+02  0.00000000000E+00 0.  1.
</event>
<event>
12   0  0.1544783E-01  0.2320447E+03  0.7957747E-01  0.1132250E+00
       21   -1    0    0  504  503  0.00000000000E+00  0.00000000000E+00  0.34178279550E+03  0.34178279550E+03  0.00000000000E+00 0. -1.
       21   -1    0    0  501  504  0.00000000000E+00  0.00000000000E+00 -0.19021609906E+03  0.19021609906E+03  0.00000000000E+00 0.  1.
        6    2    1    2  501    0  0.15486221551E+03 -0.87010085652E+01 -0.37461056821E+02  0.23504906682E+03  0.17258829535E+03 0.  0.
       24    2    3    3    0    0  0.76509515207E+02 -0.46642534306E+02 -0.73182699973E+02  0.14083213199E+03  0.80304108867E+02 0.  0.
       -6    2    1    2    0  503 -0.15486221551E+03  0.87010085652E+01  0.18902775326E+03  0.29694982773E+03  0.16849241925E+03 0.  0.
      -24    2    5    5    0    0 -0.82864261923E+02  0.69892419433E+02  0.11788048419E+03  0.17857703533E+03  0.79009574081E+02 0.  0.
        5    1    3    3  501    0  0.78352700306E+02  0.37941525741E+02  0.35721643152E+02  0.94216934838E+02  0.47000000000E+01 0. -1.
      -11    1    4    4    0    0  0.92468303438E+02 -0.45097341323E+02 -0.70135732257E+02  0.12451175958E+03  0.00000000000E+00 0.  1.
       12    1    4    4    0    0 -0.15958788231E+02 -0.15451929828E+01 -0.30469677151E+01  0.16320372404E+02  0.00000000000E+00 0. -1.
       -5    1    5    5    0  503 -0.71997953590E+02 -0.61191410868E+02  0.71147269066E+02  0.11837279240E+03  0.47000000000E+01 0.  1.
        1    1    6    6  502    0 -0.55845436586E+02  0.33222546180E+02  0.11603494862E+03  0.13299082548E+03  0.00000000000E+00 0. -1.
       -2    1    6    6    0  502 -0.27018825337E+02  0.36669873253E+02  0.18455355773E+01  0.45586209851E+02  0.00000000000E+00 0.  1.
</event>
<event>
12   0  0.1544783E-01  0.2022335E+03  0.7957747E-01  0.1154176E+00
       21   -1    0    0  504  503  0.00000000000E+00  0.00000000000E+00  0.86580763876E+02  0.86580763876E+02  0.00000000000E+00 0.  1.
       21   -1    0    0  501  504  0.00000000000E+00  0.00000000000E+00 -0.48746281777E+03  0.48746281777E+03  0.00000000000E+00 0.  1.
        6    2    1    2  501    0  0.99693122103E+02 -0.60002652370E+01 -0.26019095703E+03  0.32954170742E+03  0.17585130375E+03 0.  0.
       24    2    3    3    0    0 -0.11419604858E+02  0.17549636639E+02 -0.63923444589E+02  0.10272975357E+03  0.77645337131E+02 0.  0.
       -6    2    1    2    0  503 -0.99693122103E+02  0.60002652370E+01 -0.14069109686E+03  0.24450187422E+03  0.17324104590E+03 0.  0.
      -24    2    5    5    0    0 -0.61408452762E+02 -0.55394015949E+02 -0.44562757843E+02  0.12409539088E+03  0.81082251926E+02 0.  0.
        5    1    3    3  501    0  0.11111272696E+03 -0.23549901876E+02 -0.19626751244E+03  0.22681195385E+03  0.47000000000E+01 0. -1.
      -11    1    4    4    0    0  0.18281537541E+02 -0.15677561130E+02 -0.50882433369E+02  0.56294072187E+02  0.00000000000E+00 0.  1.
       12    1    4    4    0    0 -0.29701142399E+02  0.33227197769E+02 -0.13041011219E+02  0.46435681378E+02  0.00000000000E+00 0. -1.
       -5    1    5    5    0  503 -0.38284669340E+02  0.61394281186E+02 -0.96128339018E+02  0.12040648334E+03  0.47000000000E+01 0.  1.
        3    1    6    6  502    0  0.52483552029E+01 -0.25128454256E+02 -0.43937028625E+02  0.50886608553E+02  0.00000000000E+00 0. -1.
       -4    1    6    6    0  502 -0.66656807965E+02 -0.30265561694E+02 -0.62572921759E+00  0.73208782327E+02  0.00000000000E+00 0.  1.
</event>
<event>
12   0  0.1544783E-01  0.1786255E+03  0.7957747E-01  0.1174712E+00
       21   -1    0    0  501  503  0.00000000000E+00  0.00000000000E+00  0.11306226574E+03  0.11306226574E+03  0.00000000000E+00 0.  1.
       21   -1    0    0  503  504  0.00000000000E+00  0.00000000000E+00 -0.28107480495E+03  0.28107480495E+03  0.00000000000E+00 0.  1.
        6    2    1    2  501    0 -0.16833820425E+02  0.39250033802E+02 -0.85069199212E+02  0.19784799515E+03  0.17344485541E+03 0.  0.
       24    2    3    3    0    0 -0.64331774148E+02 -0.12150851693E+01 -0.65044176497E+01  0.97408977023E+02  0.72843309636E+02 0.  0.
       -6    2    1    2    0  504  0.16833820425E+02 -0.39250033802E+02 -0.82943340000E+02  0.19628907553E+03  0.17270165274E+03 0.  0.
      -24    2    5    5    0    0 -0.99676472806E+01 -0.45428833969E+02  0.14968651144E+02  0.94478740831E+02  0.80864324667E+02 0.  0.
        5    1    3    3  501    0  0.47497953723E+02  0.40465118972E+02 -0.78564781562E+02  0.10043901813E+03  0.47000000000E+01 0. -1.
        4    1    4    4  502    0 -0.32611871137E+02 -0.26940444784E+02  0.21927871252E+02  0.47646125151E+02  0.00000000000E+00 0. -1.
       -3    1    4    4    0  502 -0.31719903011E+02  0.25725359615E+02 -0.28432288901E+02  0.49762851873E+02  0.00000000000E+00 0.  1.
       -5    1    5    5    0  504  0.26801467705E+02  0.61788001668E+01 -0.97911991144E+02  0.10181033470E+03  0.47000000000E+01 0.  1.
       13    1    6    6    0    0 -0.23271777921E+02  0.37586339604E+01  0.32888792512E+02  0.40464498634E+02  0.00000000000E+00 0. -1.
      -14    1    6    6    0    0  0.13304130641E+02 -0.49187467929E+02 -0.17920141368E+02  0.54014242196E+02  0.00000000000E+00 0.  1.
</event>
<event>
12   0  0.1544783E-01  0.2017081E+03  0.7957747E-01  0.1154599E+00
       21   -1    0    0  501  503  0.00000000000E+00  0.00000000000E+00  0.47517473805E+03  0.47517473805E+03  0.00000000000E+00 0.  1.
       21   -1    0    0  503  504  0.00000000000E+00  0.00000000000E+00 -0.13696737717E+03  0.13696737717E+03  0.00000000000E+00 0.  1.
        6    2    1    2  501    0  0.88390874670E+02 -0.10585582528E+02  0.36313718591E+03  0.41539713460E+03  0.18100044852E+03 0.  0.
       24    2    3    3    0    0  0.13315068808E+03 -0.66679618093E+01  0.29411650160E+03  0.33290632596E+03  0.80923036899E+02 0.  0.
       -6    2    1    2    0  504 -0.88390874670E+02  0.10585582528E+02 -0.24929825027E+02  0.19674498063E+03  0.17367236379E+03 0.  0.
      -24    2    5    5    0    0 -0.89529086287E+02 -0.30658030766E+02 -0.64116862845E+02  0.13964817602E+03  0.80220127293E+02 0.  0.
        5    1    3    3  501    0 -0.44759813405E+02 -0.39176207184E+01  0.69020684302E+02  0.82490808637E+02  0.47000000000E+01 0. -1.
        2    1    4    4  502    0  0.35808044266E+02 -0.23475490747E+02  0.16425245344E+03  0.16974151867E+03  0.00000000000E+00 0. -1.
       -1    1    4    4    0  502  0.97342643809E+02  0.16807528938E+02  0.12986404816E+03  0.16316480729E+03  0.00000000000E+00 0.  1.
       -5    1    5    5    0  504  0.11382116168E+01  0.41243613294E+02  0.39187037818E+02  0.57096804605E+02  0.47000000000E+01 0.  1.
       11    1    6    6    0    0 -0.24885891967E+02  0.24968044465E+02 -0.43744329978E+01  0.35522479185E+02  0.00000000000E+00 0. -1.
      -12    1    6    6    0    0 -0.64643194320E+02 -0.55626075231E+02 -0.59742429847E+02  0.10412569684E+03  0.00000000000E+00 0.  1.
</event>
<event>
12   0  0.1544783E-01  0.1735472E+03  0.7957747E-01  0.1179589E+00
       21   -1    0    0  501  503  0.00000000000E+00  0.00000000000E+00  0.20282499298E+03  0.20282499298E+03  0.00000000000E+00 0.  1.
       21   -1    0    0  503  504  0.00000000000E+00  0.00000000000E+00 -0.16316948732E+03  0.16316948732E+03  0.00000000000E+00 0.  1.
        6    2    1    2  501    0 -0.61124729447E+01  0.59908544028E+01  0.76753417138E+02  0.18976230969E+03  0.17333607378E+03 0.  0.
       24    2    3    3    0    0  0.17296100875E+02  0.17337479310E+02 -0.22603332175E+02  0.86949076788E+02  0.80308704600E+02 0.  0.
       -6    2    1    2    0  504  0.61124729447E+01 -0.59908544028E+01 -0.37097911478E+02  0.17623217061E+03  0.17207053861E+03 0.  0.
      -24    2    5    5    0    0 -0.43082076599E+01  0.63143776847E+02 -0.15863421877E+02  0.10301208203E+03  0.79712882795E+02 0.  0.
        5    1    3    3  501    0 -0.23408573820E+02 -0.11346624907E+02  0.99356749313E+02  0.10281323290E+03  0.47000000000E+01 0. -1.
      -11    1    4    4    0    0 -0.13398763696E+02 -0.65812422463E+01  0.22736951069E+02  0.27199422089E+02  0.00000000000E+00 0.  1.
       12    1    4    4    0    0  0.30694864571E+02  0.23918721556E+02 -0.45340283244E+02  0.59749654699E+02  0.00000000000E+00 0. -1.
       -5    1    5    5    0  504  0.10420680605E+02 -0.69134631249E+02 -0.21234489600E+02  0.73220088574E+02  0.47000000000E+01 0.  1.
        1    1    6    6  502    0 -0.22413174623E+02 -0.73882774718E+01  0.10145540506E+02  0.25687916086E+02  0.00000000000E+00 0. -1.
       -2    1    6    6    0  502  0.18104966964E+02  0.70532054318E+02 -0.26008962383E+02  0.77324165947E+02  0.00000000000E+00 0.  1.
</event>
<event>
12   0  0.1544783E-01  0.1997028E+03  0.7957747E-01  0.1156227E+00
       21   -1    0    0  501  503  0.00000000000E+00  0.00000000000E+00  0.68043440609E+03  0.68043440609E+03  0.00000000000E+00 0. -1.
       21   -1    0    0  503  504  0.00000000000E+00  0.00000000000E+00 -0.81769157359E+02  0.81769157359E+02  0.00000000000E+00 0. -1.
        6    2    1    2  501    0 -0.82672358525E+02 -0.44892698124E+02  0.50456073812E+03  0.54143927020E+03  0.17240902428E+03 0.  0.
       24    2    3    3    0    0 -0.61738014599E+02 -0.51918531738E+02  0.50513524097E+03  0.51885544530E+03  0.86846099877E+02 0.  0.
       -6    2    1    2    0  504  0.82672358525E+02  0.44892698124E+02  0.94104510615E+02  0.22076429325E+03  0.17615658105E+03 0.  0.
      -24    2    5    5    0    0  0.79259856254E+02 -0.36313746534E+02  0.54246038202E+02  0.13011706688E+03  0.79918742685E+02 0.  0.
        5    1    3    3  501    0 -0.20934343926E+02  0.70258336142E+01 -0.57450285093E+00  0.22583824900E+02  0.47000000000E+01 0. -1.
        2    1    4    4  502    0 -0.42657304703E+02  0.19762775261E+01  0.36524648145E+03  0.36773433825E+03  0.00000000000E+00 0. -1.
       -1    1    4    4    0  502 -0.19080709896E+02 -0.53894809264E+02  0.13988875952E+03  0.15112110704E+03  0.00000000000E+00 0.  1.
       -5    1    5    5    0  504  0.34125022710E+01  0.81206444657E+02  0.39858472412E+02  0.90647226371E+02  0.47000000000E+01 0.  1.
       11    1    6    6    0    0  0.74071342658E+02 -0.26642466721E+02  0.73666026827E+02  0.10781033505E+03  0.00000000000E+00 0. -1.
      -12    1    6    6    0    0  0.51885135960E+01 -0.96712798127E+01 -0.19419988625E+02  0.22306731826E+02  0.00000000000E+00 0.  1.
</event>
<event>
12   0  0.1544783E-01  0.1912183E+03  0.7957747E-01  0.1163352E+00
       21   -1    0    0  504  503  0.00000000000E+00  0.00000000000E+00  0.24886729516E+03  0.24886729516E+03  0.00000000000E+00 0.  1.
       21   -1    0    0  501  504  0.00000000000E+00  0.00000000000E+00 -0.23407320991E+03  0.23407320991E+03  0.00000000000E+00 0. -1.
        6    2    1    2  501    0 -0.30296695030E+02  0.75608475037E+02  0.15827407189E+03  0.24387786638E+03  0.16670693041E+03 0.  0.
       24    2    3    3    0    0 -0.64541623337E+02  0.64347659797E+01  0.11768928679E+03  0.15654555894E+03  0.80303900554E+02 0.  0.
       -6    2    1    2    0  503  0.30296695030E+02 -0.75608475037E+02 -0.14347998664E+03  0.23906263869E+03  0.17300262259E+03 0.  0.
      -24    2    5    5    0    0  0.81204806859E+02 -0.53263565426E+02 -0.65162171305E+02  0.14290287041E+03  0.82121213724E+02 0.  0.
        5    1    3    3  501    0  0.34244928307E+02  0.69173709057E+02  0.40584785103E+02  0.87332307432E+02  0.47000000000E+01 0. -1.
        2    1    4    4  502    0 -0.49311271408E+02 -0.26661798532E+02  0.34743727092E+02  0.65951342376E+02  0.00000000000E+00 0. -1.
       -1    1    4    4    0  502 -0.15230351929E+02  0.33096564512E+02  0.82945559696E+02  0.90594216568E+02  0.00000000000E+00 0.  1.
       -5    1    5    5    0  503 -0.50908111829E+02 -0.22344909611E+02 -0.78317815337E+02  0.96159768275E+02  0.47000000000E+01 0.  1.
       11    1    6    6    0    0 -0.20263112525E+01 -0.43152749347E+02 -0.25335617593E+02  0.50081525859E+02  0.00000000000E+00 0. -1.
      -12    1    6    6    0    0  0.83231118112E+02 -0.10110816079E+02 -0.39826553712E+02  0.92821344552E+02  0.00000000000E+00 0.  1.
</event>
<event>
12   0  0.1544783E-01  0.1931361E+03  0.7957747E-01  0.1161707E+00
       21   -1    0    0  501  503  0.00000000000E+00  0.00000000000E+00  0.11792389746E+03  0.11792389746E+03  0.00000000000E+00 0. -1.
       21   -1    0    0  503  504  0.00000000000E+00  0.00000000000E+00 -0.51221025653E+03  0.51221025653E+03  0.00000000000E+00 0. -1.
        6    2    1    2  501    0  0.28668773874E+02 -0.76241182820E+02 -0.56591103759E+00  0.19159412465E+03  0.17341675753E+03 0.  0.
       24    2    3    3    0    0  0.23173019323E+02 -0.90890639155E+01 -0.59153573348E+02  0.10218375295E+03  0.79515874017E+02 0.  0.
       -6    2    1    2    0  504 -0.28668773874E+02  0.76241182820E+02 -0.39372044803E+03  0.43854002934E+03  0.17511981493E+03 0.  0.
      -24    2    5    5    0    0 -0.63976321193E+02  0.97305353916E+02 -0.22935483021E+03  0.26904528451E+03  0.78869673535E+02 0.  0.
        5    1    3    3  501    0  0.54957545512E+01 -0.67152118904E+02  0.58587662310E+02  0.89410371693E+02  0.47000000000E+01 0. -1.
        2    1    4    4  502    0 -0.21239881600E+02 -0.22664554278E+02 -0.60638675634E+01  0.31647829006E+02  0.00000000000E+00 0. -1.
       -1    1    4    4    0  502  0.44412900923E+02  0.13575490362E+02 -0.53089705784E+02  0.70535923948E+02  0.00000000000E+00 0.  1.
       -5    1    5    5    0  504  0.35307547319E+02 -0.21064171096E+02 -0.16436561782E+03  0.16949474483E+03  0.47000000000E+01 0.  1.
       11    1    6    6    0    0 -0.57401522015E+02  0.65580656807E+02 -0.21789659545E+03  0.23467995991E+03  0.00000000000E+00 0. -1.
      -12    1    6    6    0    0 -0.65747991780E+01  0.31724697109E+02 -0.11458234760E+02  0.34365324598E+02  0.00000000000E+00 0.  1.
</event>
<event>
12   0  0.1544783E-01  0.2061584E+03  0.7957747E-01  0.1151060E+00
       21   -1    0    0  501  503  0.00000000000E+00  0.00000000000E+00  0.21153560529E+03  0.21153560529E+03  0.00000000000E+00 0. -1.
       21   -1    0    0  503  504  0.00000000000E+00  0.00000000000E+00 -0.20126379291E+03  0.20126379291E+03  0.00000000000E+00 0. -1.
        6    2    1    2  501    0  0.99553129872E+02 -0.53824874144E+02 -0.12838724085E+02  0.20534972795E+03  0.17086759549E+03 0.  0.
       24    2    3    3    0    0  0.95339923286E+02 -0.27999062290E+02  0.49402143690E+02  0.13766856891E+03  0.81476466562E+02 0.  0.
       -6    2    1    2    0  504 -0.99553129872E+02  0.53824874144E+02  0.23110536458E+02  0.20744967025E+03  0.17231751521E+03 0.  0.
      -24    2    5    5    0    0 -0.11205499964E+03 -0.12455060268E+02  0.20093819773E+02  0.13977015317E+03  0.80127914323E+02 0.  0.
        5    1    3    3  501    0  0.42132065860E+01 -0.25825811854E+02 -0.62240867775E+02  0.67681159040E+02  0.47000000000E+01 0. -1.
      -13    1    4    4    0    0  0.34703112300E+01 -0.35441518823E+02  0.73662223919E+01  0.36364894456E+02  0.00000000000E+00 0.  1.
       14    1    4    4    0    0  0.91869612056E+02  0.74424565328E+01  0.42035921298E+02  0.10130367445E+03  0.00000000000E+00 0. -1.
       -5    1    5    5    0  504  0.12501869764E+02  0.66279934412E+02  0.30167166842E+01  0.67679517085E+02  0.47000000000E+01 0.  1.
        1    1    6    6  502    0 -0.73830956115E+02  0.36772357901E+01  0.49457550080E+02  0.88941449301E+02  0.00000000000E+00 0. -1.
       -2    1    6    6    0  502 -0.38224043521E+02 -0.16132296058E+02 -0.29363730307E+02  0.50828703866E+02  0.00000000000E+00 0.  1.
</event>
<event>
12   0  0.1544783E-01  0.4511182E+03  0.7957747E-01  0.1037005E+00
       21   -1    0    0  504  503  0.00000000000E+00  0.00000000000E+00  0.46445434837E+03  0.46445434837E+03  0.00000000000E+00 0.  1.
       21   -1    0    0  501  504  0.00000000000E+00  0.00000000000E+00 -0.47592324287E+03  0.47592324287E+03  0.00000000000E+00 0.  1.
        6    2    1    2  501    0 -0.23457414190E+03  0.34331488830E+03 -0.13926564624E+03  0.47212556588E+03  0.17497853914E+03 0.  0.
       24    2    3    3    0    0 -0.19556468411E+03  0.35269445978E+03 -0.12108974631E+03  0.42782920603E+03  0.75737541773E+02 0.  0.
       -6    2    1    2    0  503  0.23457414190E+03 -0.34331488830E+03  0.12779675173E+03  0.46825202537E+03  0.17331419138E+03 0.  0.
      -24    2    5    5    0    0  0.14923706776E+03 -0.12588699727E+03  0.26762392159E+02  0.21371846013E+03  0.82704994354E+02 0.  0.
        5    1    3    3  501    0 -0.39009457786E+02 -0.93795714870E+01 -0.18175899923E+02  0.44296359851E+02  0.47000000000E+01 0. -1.
        2    1    4    4  502    0 -0.16372072268E+03  0.26797905842E+03 -0.12311246717E+03  0.33730391394E+03  0.00000000000E+00 0. -1.
       -1    1    4    4    0  502 -0.31843961434E+02  0.84715401359E+02  0.20227208583E+01  0.90525292084E+02  0.00000000000E+00 0.  1.
       -5    1    5    5    0  503  0.85337074143E+02 -0.21742789103E+03  0.10103435957E+03  0.25453356524E+03  0.47000000000E+01 0.  1.
       11    1    6    6    0    0  0.11139493441E+03 -0.41116774096E+02  0.22009695449E+02  0.12076360055E+03  0.00000000000E+00 0. -1.
      -12    1    6    6    0    0  0.37842133349E+02 -0.84770223174E+02  0.47526967093E+01  0.92954859579E+02  0.00000000000E+00 0.  1.
</event>
<event>
12   0  0.1544783E-01  0.2200207E+03  0.7957747E-01  0.1140635E+00
        2   -1    0    0  502    0  0.00000000000E+00  0.00000000000E+00  0.52558588928E+02  0.52558588928E+02  0.00000000000E+00 0.  1.
       -2   -1    0    0    0  501  0.00000000000E+00  0.00000000000E+00 -0.10260575041E+04  0.10260575041E+04  0.00000000000E+00 0. -1.
        6    2    1    2  502    0 -0.11081911234E+03  0.78875697942E+02 -0.65960371247E+03  0.69538371819E+03  0.17314504509E+03 0.  0.
       24    2    3    3    0    0 -0.44413487888E+02  0.94587299498E+02 -0.25486965394E+03  0.28491044316E+03  0.72774342933E+02 0.  0.
       -6    2    1    2    0  501  0.11081911234E+03 -0.78875697942E+02 -0.31389520270E+03  0.38323237483E+03  0.17272696215E+03 0.  0.
      -24    2    5    5    0    0  0.31322752506E+02 -0.93133855637E+02 -0.24408532762E+03  0.27637511047E+03  0.84560774817E+02 0.  0.
        5    1    3    3  502    0 -0.66405624456E+02 -0.15711601555E+02 -0.40473405853E+03  0.41047327504E+03  0.47000000000E+01 0. -1.
        2    1    4    4  503    0 -0.60679466171E+01  0.56016950383E+02 -0.19947156123E+03  0.20727668090E+03  0.00000000000E+00 0. -1.
       -1    1    4    4    0  503 -0.38345541271E+02  0.38570349115E+02 -0.55398092706E+02  0.77633762254E+02  0.00000000000E+00 0.  1.
       -5    1    5    5    0  501  0.79496359838E+02  0.14258157694E+02 -0.69809875082E+02  0.10685726436E+03  0.47000000000E+01 0.  1.
       11    1    6    6    0    0  0.23501484056E+02 -0.75625109987E+02 -0.24469332269E+03  0.25718922836E+03  0.00000000000E+00 0. -1.
      -12    1    6    6    0    0  0.78212684497E+01 -0.17508745650E+02  0.60799507211E+00  0.19185882112E+02  0.00000000000E+00 0.  1.
</event>
<event>
12   0  0.1544783E-01  0.3543063E+03  0.7957747E-01  0.1069703E+00
       21   -1    0    0  504  503  0.00000000000E+00  0.00000000000E+00  0.78699480268E+03  0.78699480268E+03  0.00000000000E+00 0. -1.
       21   -1    0    0  501  504  0.00000000000E+00  0.00000000000E+00 -0.16300386633E+03  0.16300386633E+03  0.00000000000E+00 0. -1.
        6    2    1    2  501    0  0.80264089196E+02 -0.29811706506E+03  0.24176778535E+03  0.42893426324E+03  0.17382989285E+03 0.  0.
       24    2    3    3    0    0  0.98789335927E+02 -0.30593772039E+03  0.21624021222E+03  0.39609991527E+03  0.82329167630E+02 0.  0.
       -6    2    1    2    0  503 -0.80264089196E+02  0.29811706506E+03  0.38222315099E+03  0.52106440578E+03  0.17348622227E+03 0.  0.
      -24    2    5    5    0    0 -0.89082217755E+02  0.21928033508E+03  0.35935221697E+03  0.43837124398E+03  0.83760520737E+02 0.  0.
        5    1    3    3  501    0 -0.18525246731E+02  0.78206553333E+01  0.25527573132E+02  0.32834347965E+02  0.47000000000E+01 0. -1.
      -11    1    4    4    0    0  0.60345156647E+02 -0.85120201684E+02  0.43170278345E+02  0.11291881862E+03  0.00000000000E+00 0.  1.
       12    1    4    4    0    0  0.38444179281E+02 -0.22081751871E+03  0.17306993388E+03  0.28318109665E+03  0.00000000000E+00 0. -1.
       -5    1    5    5    0  503  0.88181285590E+01  0.78836729981E+02  0.22870934025E+02  0.82693161800E+02  0.47000000000E+01 0.  1.
        3    1    6    6  502    0  0.73792847997E+01  0.87153272650E+02  0.12323081067E+03  0.15111578169E+03  0.00000000000E+00 0. -1.
       -4    1    6    6    0  502 -0.96461502555E+02  0.13212706243E+03  0.23612140630E+03  0.28725546228E+03  0.00000000000E+00 0.  1.
</event>
<event>
12   0  0.1544783E-01  0.4078512E+03  0.7957747E-01  0.1050407E+00
       21   -1    0    0  501  503  0.00000000000E+00  0.00000000000E+00  0.41183891111E+03  0.41183891111E+03  0.00000000000E+00 0. -1.
       21   -1    0    0  503  504  0.00000000000E+00  0.00000000000E+00 -0.52611923925E+03  0.52611923925E+03  0.00000000000E+00 0.  1.
        6    2    1    2  501    0 -0.48784415789E+02 -0.36599211829E+03  0.16899340832E+03  0.44138328949E+03  0.17300371762E+03 0.  0.
       24    2    3    3    0    0  0.33340197046E+02 -0.26104037465E+03  0.11419118786E+03  0.29721431261E+03  0.77737213095E+02 0.  0.
       -6    2    1    2    0  504  0.48784415789E+02  0.36599211829E+03 -0.28327373645E+03  0.49657486087E+03  0.17324096748E+03 0.  0.
      -24    2    5    5    0    0  0.22211537321E+02  0.37103517497E+03 -0.26913285952E+03  0.46569437041E+03  0.79235705983E+02 0.  0.
        5    1    3    3  501    0 -0.82124612835E+02 -0.10495174364E+03  0.54802220467E+02  0.14416897688E+03  0.47000000000E+01 0. -1.
        2    1    4    4  502    0  0.25089662463E+02 -0.11389076023E+03  0.91207901965E+02  0.14805228066E+03  0.00000000000E+00 0. -1.
       -1    1    4    4    0  502  0.82505345834E+01 -0.14714961441E+03  0.22983285892E+02  0.14916203194E+03  0.00000000000E+00 0.  1.
       -5    1    5    5    0  504  0.26572878468E+02 -0.50430566834E+01 -0.14140876938E+02  0.30880490465E+02  0.47000000000E+01 0.  1.
       13    1    6    6    0    0  0.45763994529E+02  0.19016134761E+03 -0.11501759776E+03  0.22690246609E+03  0.00000000000E+00 0. -1.
      -14    1    6    6    0    0 -0.23552457208E+02  0.18087382736E+03 -0.15411526176E+03  0.23879190432E+03  0.00000000000E+00 0.  1.
</event>
<event>
12   0  0.1544783E-01  0.2102444E+03  0.7957747E-01  0.1147896E+00
       -1   -1    0    0    0  501  0.00000000000E+00  0.00000000000E+00  0.84224921974E+02  0.84224921974E+02  0.00000000000E+00 0. -1.
        1   -1    0    0  502    0  0.00000000000E+00  0.00000000000E+00 -0.94067286604E+03  0.94067286604E+03  0.00000000000E+00 0.  1.
        6    2    1    2  502    0  0.10809232864E+03 -0.50882484745E+02 -0.77101364611E+03  0.79965286758E+03  0.17524179690E+03 0.  0.
       24    2    3    3    0    0  0.13660889307E+03 -0.41436618494E+02 -0.45637985736E+03  0.48355331070E+03  0.71848779176E+02 0.  0.
       -6    2    1    2    0  501 -0.10809232864E+03  0.50882484745E+02 -0.85434297964E+02  0.22524492044E+03  0.17077258606E+03 0.  0.
      -24    2    5    5    0    0 -0.14212018050E+03  0.49485150523E+02 -0.55860998517E+02  0.17989608049E+03  0.81210977034E+02 0.  0.
        5    1    3    3  502    0 -0.28516564432E+02 -0.94458662508E+01 -0.31463378875E+03  0.31609955688E+03  0.47000000000E+01 0. -1.
      -11    1    4    4    0    0  0.26724985538E+02 -0.30785519946E+02 -0.20477407743E+03  0.20879271030E+03  0.00000000000E+00 0.  1.
       12    1    4    4    0    0  0.10988390754E+03 -0.10651098549E+02 -0.25160577993E+03  0.27476060040E+03  0.00000000000E+00 0. -1.
       -5    1    5    5    0  501  0.34027851858E+02  0.13973342226E+01 -0.29573299447E+02  0.45348839954E+02  0.47000000000E+01 0.  1.
        1    1    6    6  503    0 -0.70883837259E+02  0.45961001682E+02  0.70738284195E+01  0.84776005500E+02  0.00000000000E+00 0. -1.
       -2    1    6    6    0  503 -0.71236343242E+02  0.35241488407E+01 -0.62934826936E+02  0.95120074985E+02  0.00000000000E+00 0.  1.
</event>
<event>
12   0  0.1544783E-01  0.2277693E+03  0.7957747E-01  0.1135167E+00
       -1   -1    0    0    0  501  0.00000000000E+00  0.00000000000E+00  0.11047137635E+03  0.11047137635E+03  0.00000000000E+00 0.  1.
        1   -1    0    0  502    0  0.00000000000E+00  0.00000000000E+00 -0.56622380423E+03  0.56622380423E+03  0.00000000000E+00 0. -1.
        6    2    1    2  502    0  0.12209348677E+03  0.80981337489E+02 -0.36776518457E+03  0.43266775614E+03  0.17460057184E+03 0.  0.
       24    2    3    3    0    0 -0.61982704968E+00  0.69944962023E+01 -0.96028175889E+02  0.12542892077E+03  0.80384677884E+02 0.  0.
       -6    2    1    2    0  501 -0.12209348677E+03 -0.80981337489E+02 -0.87987243313E+02  0.24402742445E+03  0.17419194116E+03 0.  0.
      -24    2    5    5    0    0 -0.62554749982E+02 -0.28706461288E+02 -0.11876049648E+03  0.15890041951E+03  0.80050797185E+02 0.  0.
        5    1    3    3  502    0  0.12271331382E+03  0.73986841286E+02 -0.27173700868E+03  0.30723883537E+03  0.47000000000E+01 0. -1.
      -11    1    4    4    0    0 -0.24601282027E+01 -0.29302418596E+02 -0.80871345883E+02  0.86051487792E+02  0.00000000000E+00 0.  1.
       12    1    4    4    0    0  0.18403011531E+01  0.36296914798E+02 -0.15156830006E+02  0.39377432979E+02  0.00000000000E+00 0. -1.
       -5    1    5    5    0  501 -0.59538736785E+02 -0.52274876201E+02  0.30773253166E+02  0.85127004941E+02  0.47000000000E+01 0.  1.
        3    1    6    6  503    0  0.94597351434E+01 -0.31839287565E+02 -0.42891778851E+02  0.54248792748E+02  0.00000000000E+00 0. -1.
       -4    1    6    6    0  503 -0.72014485125E+02  0.31328262774E+01 -0.75868717629E+02  0.10465162676E+03  0.00000000000E+00 0.  1.
</event>
<event>
12   0  0.1544783E-01  0.2168046E+03  0.7957747E-01  0.1142977E+00
       21   -1    0    0  501  503  0.00000000000E+00  0.00000000000E+00  0.22992721685E+03  0.22992721685E+03  0.00000000000E+00 0.  1.
       21   -1    0    0  503  504  0.00000000000E+00  0.00000000000E+00 -0.23939709896E+03  0.23939709896E+03  0.00000000000E+00 0. -1.
        6    2    1    2  501    0  0.34639324043E+02  0.12370220062E+03 -0.96724328862E+02  0.23740227932E+03  0.17464858782E+03 0.  0.
       24    2    3    3    0    0 -0.65147997139E+01  0.10456190723E+02  0.47695425100E+00  0.82520065697E+02  0.81593867524E+02 0.  0.
       -6    2    1    2    0  504 -0.34639324043E+02 -0.12370220062E+03  0.87254446749E+02  0.23192203648E+03  0.17225671343E+03 0.  0.
      -24    2    5    5    0    0  0.25174162975E+02 -0.61892386479E+02  0.97758208412E+02  0.14514343680E+03  0.83937738531E+02 0.  0.
        5    1    3    3  501    0  0.41154123757E+02  0.11324600989E+03 -0.97201283113E+02  0.15488221363E+03  0.47000000000E+01 0. -1.
      -11    1    4    4    0    0 -0.33823388641E+02  0.32517908152E+02 -0.41826078334E+01  0.47105521736E+02  0.00000000000E+00 0.  1.
       12    1    4    4    0    0  0.27308588927E+02 -0.22061717429E+02  0.46595620844E+01  0.35414543961E+02  0.00000000000E+00 0. -1.
       -5    1    5    5    0  504 -0.59813487018E+02 -0.61809814138E+02 -0.10503761663E+02  0.86778599678E+02  0.47000000000E+01 0.  1.
        3    1    6    6  502    0  0.30698610345E+02 -0.30086971509E+02  0.84202386808E+00  0.42992319499E+02  0.00000000000E+00 0. -1.
       -4    1    6    6    0  502 -0.55244473694E+01 -0.31805414970E+02  0.96916184544E+02  0.10215111731E+03  0.00000000000E+00 0.  1.
</event>
<event>
12   0  0.1544783E-01  0.1875649E+03  0.7957747E-01  0.1166547E+00
       21   -1    0    0  501  503  0.00000000000E+00  0.00000000000E+00  0.36651528215E+03  0.36651528215E+03  0.00000000000E+00 0. -1.
       21   -1    0    0  503  504  0.00000000000E+00  0.00000000000E+00 -0.16664639727E+03  0.16664639727E+03  0.00000000000E+00 0. -1.
        6    2    1    2  501    0 -0.70931936293E+02  0.10366664112E+02  0.27654832452E+03  0.33052822960E+03  0.16622613350E+03 0.  0.
       24    2    3    3    0    0 -0.60179883610E+02  0.67947462169E+02  0.16573583776E+03  0.20509836010E+03  0.79740161719E+02 0.  0.
       -6    2    1    2    0  504  0.70931936293E+02 -0.10366664112E+02 -0.76679439636E+02  0.20263344982E+03  0.17332562192E+03 0.  0.
      -24    2    5    5    0    0  0.85438262962E+02 -0.28542526023E+02  0.39111514821E+01  0.11862315970E+03  0.77082970500E+02 0.  0.
        5    1    3    3  501    0 -0.10752052683E+02 -0.57580798057E+02  0.11081248675E+03  0.12542986950E+03  0.47000000000E+01 0. -1.
        4    1    4    4  502    0 -0.69231602999E+02  0.20844749046E+02  0.10907319567E+03  0.13086053810E+03  0.00000000000E+00 0. -1.
       -3    1    4    4    0  502  0.90517193893E+01  0.47102713123E+02  0.56662642092E+02  0.74237822007E+02  0.00000000000E+00 0.  1.
       -5    1    5    5    0  504 -0.14506326670E+02  0.18175861911E+02 -0.80590591118E+02  0.84010290123E+02  0.47000000000E+01 0.  1.
       11    1    6    6    0    0  0.39607084882E+02 -0.52872332644E+02  0.81434245402E+01  0.66562152124E+02  0.00000000000E+00 0. -1.
      -12    1    6    6    0    0  0.45831178080E+02  0.24329806621E+02 -0.42322730581E+01  0.52061007574E+02  0.00000000000E+00 0.  1.
</event>
<event>
12   0  0.1544783E-01  0.2158148E+03  0.7957747E-01  0.1143707E+00
       -2   -1    0    0    0  501  0.00000000000E+00  0.00000000000E+00  0.69072979401E+02  0.69072979401E+02  0.00000000000E+00 0. -1.
        2   -1    0    0  502    0  0.00000000000E+00  0.00000000000E+00 -0.89332075145E+03  0.89332075145E+03  0.00000000000E+00 0.  1.
        6    2    1    2  502    0 -0.88385988449E+02 -0.94311353509E+02 -0.17431041202E+03  0.27766032119E+03  0.17321783935E+03 0.  0.
       24    2    3    3    0    0 -0.40780464553E+02  0.16597753580E+02 -0.80698938538E+02  0.12484568214E+03  0.84472444941E+02 0.  0.
       -6    2    1    2    0  501  0.88385988449E+02  0.94311353509E+02 -0.64993736003E+03  0.68473340967E+03  0.17243710735E+03 0.  0.
      -24    2    5    5    0    0  0.43083287774E+02  0.38298226148E+02 -0.13668424686E+03  0.16642784988E+03  0.75450129646E+02 0.  0.
        5    1    3    3  502    0 -0.47605523895E+02 -0.11090910709E+03 -0.93611473480E+02  0.15281463905E+03  0.47000000000E+01 0. -1.
        4    1    4    4  503    0 -0.29468739842E+02  0.46050011129E+02 -0.23470725872E+02  0.59496933752E+02  0.00000000000E+00 0. -1.
       -3    1    4    4    0  503 -0.11311724711E+02 -0.29452257550E+02 -0.57228212666E+02  0.65348748386E+02  0.00000000000E+00 0.  1.
       -5    1    5    5    0  501  0.45302700674E+02  0.56013127361E+02 -0.51325311318E+03  0.51830555979E+03  0.47000000000E+01 0.  1.
       13    1    6    6    0    0  0.38721153289E+02 -0.11134502560E+02 -0.35369700176E+02  0.53612690194E+02  0.00000000000E+00 0. -1.
      -14    1    6    6    0    0  0.43621344859E+01  0.49432728708E+02 -0.10131454668E+03  0.11281515968E+03  0.00000000000E+00 0.  1.
</event>
<event>
12   0  0.1544783E-01  0.2786354E+03  0.7957747E-01  0.1104334E+00
       -2   -1    0    0    0  501  0.00000000000E+00  0.00000000000E+00  0.20082326078E+03  0.20082326078E+03  0.00000000000E+00 0.  1.
        2   -1    0    0  502    0  0.00000000000E+00  0.00000000000E+00 -0.40043802011E+03  0.40043802011E+03  0.00000000000E+00 0. -1.
        6    2    1    2  502    0  0.20025155191E+03  0.84739996733E+02 -0.15606946832E+03  0.32033539268E+03  0.17599867549E+03 0.  0.
       24    2    3    3    0    0  0.10438229604E+03  0.71651406162E+02 -0.16433768741E+03  0.22311050456E+03  0.82108671952E+02 0.  0.
       -6    2    1    2    0  501 -0.20025155191E+03 -0.84739996733E+02 -0.43545291015E+02  0.28092588822E+03  0.17245756352E+03 0.  0.
      -24    2    5    5    0    0 -0.16396792852E+03 -0.60586013053E+02  0.30920415554E+02  0.19451322879E+03  0.79518409933E+02 0.  0.
        5    1    3    3  502    0  0.95869255865E+02  0.13088590571E+02  0.82682190901E+01  0.97224888122E+02  0.47000000000E+01 0. -1.
      -11    1    4    4    0    0  0.33049294777E+02  0.35167447757E+02 -0.10102110551E+02  0.49305759345E+02  0.00000000000E+00 0.  1.
       12    1    4    4    0    0  0.71333001263E+02  0.36483958405E+02 -0.15423557686E+03  0.17380474521E+03  0.00000000000E+00 0. -1.
       -5    1    5    5    0  501 -0.36283623388E+02 -0.24153983680E+02 -0.74465706569E+02  0.86412659424E+02  0.47000000000E+01 0.  1.
        3    1    6    6  503    0 -0.67569077256E+02 -0.50183177459E+02 -0.17761093633E+02  0.86019695118E+02  0.00000000000E+00 0. -1.
       -4    1    6    6    0  503 -0.96398851262E+02 -0.10402835593E+02  0.48681509187E+02  0.10849353368E+03  0.00000000000E+00 0.  1.
</event>
<event>
12   0  0.1544783E-01  0.2311683E+03  0.7957747E-01  0.1132842E+00
       21   -1    0    0  504  503  0.00000000000E+00  0.00000000000E+00  0.51970549151E+03  0.51970549151E+03  0.00000000000E+00 0.  1.
       21   -1    0    0  501  504  0.00000000000E+00  0.00000000000E+00 -0.33689540491E+03  0.33689540491E+03  0.00000000000E+00 0. -1.
        6    2    1    2  501    0 -0.77701825797E+02 -0.96905306111E+02 -0.27268690141E+03  0.34580125848E+03  0.17260403263E+03 0.  0.
       24    2    3    3    0    0 -0.90326526269E+02 -0.60438522461E+02 -0.95090495524E+02  0.16399976576E+03  0.77730460463E+02 0.  0.
       -6    2    1    2    0  503  0.77701825797E+02  0.96905306111E+02  0.45549698802E+03  0.51079963794E+03  0.19496295016E+03 0.  0.
      -24    2    5    5    0    0  0.29538615474E+02  0.26890570201E+02  0.64247970376E+02  0.11040028494E+03  0.80403909405E+02 0.  0.
        5    1    3    3  501    0  0.12624700472E+02 -0.36466783650E+02 -0.17759640589E+03  0.18180149272E+03  0.47000000000E+01 0. -1.
        2    1    4    4  502    0 -0.31940158834E+01 -0.42961603446E+02 -0.19315966207E+02  0.47212367645E+02  0.00000000000E+00 0. -1.
       -1    1    4    4    0  502 -0.87132510385E+02 -0.17476919016E+02 -0.75774529317E+02  0.11678739811E+03  0.00000000000E+00 0.  1.
       -5    1    5    5    0  503  0.48163210323E+02  0.70014735910E+02  0.39124901764E+03  0.40039935300E+03  0.47000000000E+01 0.  1.
       11    1    6    6    0    0  0.47547030492E+02 -0.53709356813E+01  0.17808145392E+02  0.51055823380E+02  0.00000000000E+00 0. -1.
      -12    1    6    6    0    0 -0.18008415018E+02  0.32261505883E+02  0.46439824984E+02  0.59344461560E+02  0.00000000000E+00 0.  1.
</event>
<event>
12   0  0.1544783E-01  0.2009950E+03  0.7957747E-01  0.1155176E+00
        2   -1    0    0  502    0  0.00000000000E+00  0.00000000000E+00  0.24515375070E+03  0.24515375070E+03  0.00000000000E+00 0.  1.
       -2   -1    0    0    0  501  0.00000000000E+00  0.00000000000E+00 -0.17892125410E+03  0.17892125410E+03  0.00000000000E+00 0. -1.
        6    2    1    2  502    0  0.77988629672E+01  0.10248900999E+03 -0.26446283420E+02  0.20289861302E+03  0.17292663713E+03 0.  0.
       24    2    3    3    0    0  0.53345926513E+02  0.65262121374E+02  0.32398682538E+02  0.11956076897E+03  0.78359239941E+02 0.  0.
       -6    2    1    2    0  501 -0.77988629672E+01 -0.10248900999E+03  0.92678780024E+02  0.22117639178E+03  0.17252484048E+03 0.  0.
      -24    2    5    5    0    0  0.38793200771E+02 -0.39008343739E+02  0.10161290857E+03  0.14178795406E+03  0.82171025442E+02 0.  0.
        5    1    3    3  502    0 -0.45547063546E+02  0.37226888611E+02 -0.58844965958E+02  0.83337844056E+02  0.47000000000E+01 0. -1.
      -13    1    4    4    0    0  0.54011565385E+02  0.89769460445E+01  0.28083526282E+00  0.54753206518E+02  0.00000000000E+00 0.  1.
       14    1    4    4    0    0 -0.66563887152E+00  0.56285175329E+02  0.32117847275E+02  0.64807562449E+02  0.00000000000E+00 0. -1.
       -5    1    5    5    0  501 -0.46592063738E+02 -0.63480666246E+02 -0.89341285463E+01  0.79388437718E+02  0.47000000000E+01 0.  1.
        1    1    6    6  503    0  0.60397583046E+02 -0.33787654808E+02  0.49362326448E+02  0.85006546380E+02  0.00000000000E+00 0. -1.
       -2    1    6    6    0  503 -0.21604382275E+02 -0.52206889314E+01  0.52250582123E+02  0.56781407684E+02  0.00000000000E+00 0.  1.
</event>
<event>
12   0  0.1544783E-01  0.2386224E+03  0.7957747E-01  0.1127894E+00
       -2   -1    0    0    0  501  0.00000000000E+00  0.00000000000E+00  0.94217383018E+02  0.94217383018E+02  0.00000000000E+00 0. -1.
        2   -1    0    0  502    0  0.00000000000E+00  0.00000000000E+00 -0.71412997766E+03  0.71412997766E+03  0.00000000000E+00 0.  1.
        6    2    1    2  502    0  0.14331658024E+03  0.78858500162E+02 -0.46946643111E+03  0.52706594451E+03  0.17504706426E+03 0.  0.
       24    2    3    3    0    0  0.15746775349E+03  0.23427218573E+02 -0.39702561654E+03  0.43463951810E+03  0.77053504462E+02 0.  0.
       -6    2    1    2    0  501 -0.14331658024E+03 -0.78858500162E+02 -0.15044616354E+03  0.28128141617E+03  0.17241485359E+03 0.  0.
      -24    2    5    5    0    0 -0.70640169178E+02 -0.97103694567E+02 -0.43778462359E+02  0.15084048579E+03  0.80107037062E+02 0.  0.
        5    1    3    3  502    0 -0.14151173250E+02  0.55431281590E+02 -0.72440814570E+02  0.92426426408E+02  0.47000000000E+01 0. -1.
      -13    1    4    4    0    0  0.23121040191E+02 -0.22330856915E+02 -0.10743354950E+03  0.11213927602E+03  0.00000000000E+00 0.  1.
       14    1    4    4    0    0  0.13434671330E+03  0.45758075488E+02 -0.28959206704E+03  0.32250024208E+03  0.00000000000E+00 0. -1.
       -5    1    5    5    0  501 -0.72676411062E+02  0.18245194404E+02 -0.10666770118E+03  0.13044093038E+03  0.47000000000E+01 0.  1.
        3    1    6    6  503    0  0.17991403052E+02 -0.13741360442E+02 -0.56853516608E+01  0.23341782153E+02  0.00000000000E+00 0. -1.
       -4    1    6    6    0  503 -0.88631572229E+02 -0.83362334124E+02 -0.38093110698E+02  0.12749870364E+03  0.00000000000E+00 0.  1.
</event>
<event>
12   0  0.1544783E-01  0.2134412E+03  0.7957747E-01  0.1145475E+00
       -2   -1    0    0    0  501  0.00000000000E+00  0.00000000000E+00  0.13789972881E+03  0.13789972881E+03  0.00000000000E+00 0.  1.
        2   -1    0    0  502    0  0.00000000000E+00  0.00000000000E+00 -0.33349738118E+03  0.33349738118E+03  0.00000000000E+00 0. -1.
        6    2    1    2  502    0 -0.39628796359E+01  0.12497136353E+03 -0.12041782035E+03  0.24464462795E+03  0.17238618394E+03 0.  0.
       24    2    3    3    0    0  0.31535970086E+02  0.60984336610E+01 -0.34504735535E+02  0.93667510719E+02  0.80940209337E+02 0.  0.
       -6    2    1    2    0  501  0.39628796359E+01 -0.12497136353E+03 -0.75179832021E+02  0.22675248204E+03  0.17358322169E+03 0.  0.
      -24    2    5    5    0    0 -0.20752152796E+02 -0.27603908323E+02 -0.87123513462E+02  0.12548059213E+03  0.83440067124E+02 0.  0.
        5    1    3    3  502    0 -0.35498849722E+02  0.11887292987E+03 -0.85913084813E+02  0.15097711723E+03  0.47000000000E+01 0. -1.
      -13    1    4    4    0    0  0.58164985401E+02 -0.43568734268E+01 -0.20594543458E+02  0.61856956706E+02  0.00000000000E+00 0.  1.
       14    1    4    4    0    0 -0.26629015315E+02  0.10455307088E+02 -0.13910192078E+02  0.31810554013E+02  0.00000000000E+00 0. -1.
       -5    1    5    5    0  501  0.24715032432E+02 -0.97367455203E+02  0.11943681442E+02  0.10127188992E+03  0.47000000000E+01 0.  1.
        3    1    6    6  503    0 -0.18585879783E+02  0.27682229182E+02 -0.44668022169E+02  0.55740227343E+02  0.00000000000E+00 0. -1.
       -4    1    6    6    0  503 -0.21662730129E+01 -0.55286137505E+02 -0.42455491293E+02  0.69740364782E+02  0.00000000000E+00 0.  1.
</event>
<event>
12   0  0.1544783E-01  0.1992480E+03  0.7957747E-01  0.1156599E+00
       21   -1    0    0  504  503  0.00000000000E+00  0.00000000000E+00  0.57371132790E+03  0.57371132790E+03  0.00000000000E+00 0. -1.
       21   -1    0    0  501  504  0.00000000000E+00  0.00000000000E+00 -0.87768047436E+02  0.87768047436E+02  0.00000000000E+00 0. -1.
        6    2    1    2  501    0 -0.93366610489E+02  0.11345558194E+02  0.88544489227E+02  0.21803642361E+03  0.17565224110E+03 0.  0.
       24    2    3    3    0    0 -0.36521207990E+01  0.15679059867E+01  0.10441608260E+03  0.12628518591E+03  0.70918499410E+02 0.  0.
       -6    2    1    2    0  503  0.93366610489E+02 -0.11345558194E+02  0.39739879124E+03  0.44344295173E+03  0.17282883589E+03 0.  0.
      -24    2    5    5    0    0  0.13058321980E+03 -0.27289426764E+02  0.31065486539E+03  0.34759994664E+03  0.80762537139E+02 0.  0.
        5    1    3    3  501    0 -0.89714489690E+02  0.97776522074E+01 -0.15871593374E+02  0.91751237699E+02  0.47000000000E+01 0. -1.
      -11    1    4    4    0    0  0.11690246455E+02  0.30931465687E+02  0.29271874043E+02  0.44161748626E+02  0.00000000000E+00 0.  1.
       12    1    4    4    0    0 -0.15342367254E+02 -0.29363559700E+02  0.75144208558E+02  0.82123437282E+02  0.00000000000E+00 0. -1.
       -5    1    5    5    0  503 -0.37216609311E+02  0.15943868570E+02  0.86743925844E+02  0.95843005088E+02  0.47000000000E+01 0.  1.
        1    1    6    6  502    0  0.75449117762E+02  0.25064973725E+02  0.14616191153E+03  0.16638547611E+03  0.00000000000E+00 0. -1.
       -2    1    6    6    0  502  0.55134102038E+02 -0.52354400489E+02  0.16449295386E+03  0.18121447053E+03  0.00000000000E+00 0.  1.
</event>
<event>
12   0  0.1544783E-01  0.2142119E+03  0.7957747E-01  0.1144898E+00
       21   -1    0    0  501  503  0.00000000000E+00  0.00000000000E+00  0.76376087995E+03  0.76376087995E+03  0.00000000000E+00 0. -1.
       21   -1    0    0  503  504  0.00000000000E+00  0.00000000000E+00 -0.57489821800E+02  0.57489821800E+02  0.00000000000E+00 0. -1.
        6    2    1    2  501    0  0.42491327756E+02  0.12075914005E+03  0.34463501955E+03  0.40578325515E+03  0.17175118813E+03 0.  0.
       24    2    3    3    0    0  0.52604870998E+02  0.53728780007E+02  0.94591426207E+02  0.14667084423E+03  0.83130887044E+02 0.  0.
       -6    2    1    2    0  504 -0.42491327756E+02 -0.12075914005E+03  0.36163603860E+03  0.41546744659E+03  0.15951267011E+03 0.  0.
      -24    2    5    5    0    0  0.28528769363E+01 -0.11198417810E+02  0.19250565423E+03  0.20885954337E+03  0.80189391308E+02 0.  0.
        5    1    3    3  501    0 -0.10113543243E+02  0.67030360045E+02  0.25004359334E+03  0.25911241092E+03  0.47000000000E+01 0. -1.
      -13    1    4    4    0    0 -0.18695822611E+02 -0.38015457714E+01  0.82681158014E+01  0.20792962085E+02  0.00000000000E+00 0.  1.
       14    1    4    4    0    0  0.71300693610E+02  0.57530325778E+02  0.86323310406E+02  0.12587788214E+03  0.00000000000E+00 0. -1.
       -5    1    5    5    0  504 -0.45344204692E+02 -0.10956072224E+03  0.16913038437E+03  0.20660790322E+03  0.47000000000E+01 0.  1.
        3    1    6    6  502    0 -0.14428774202E+02 -0.26559167408E+02  0.23517385501E+02  0.38296818656E+02  0.00000000000E+00 0. -1.
       -4    1    6    6    0  502  0.17281651138E+02  0.15360749598E+02  0.16898826873E+03  0.17056272472E+03  0.00000000000E+00 0.  1.
</event>
<event>
12   0  0.1544783E-01  0.1821627E+03  0.7957747E-01  0.1171420E+00
       21   -1    0    0  504  503  0.00000000000E+00  0.00000000000E+00  0.79205583906E+02  0.79205583906E+02  0.00000000000E+00 0.  1.
       21   -1    0    0  501  504  0.00000000000E+00  0.00000000000E+00 -0.55126247034E+03  0.55126247034E+03  0.00000000000E+00 0.  1.
        6    2    1    2  501    0 -0.91536398695E-01  0.54664501249E+02 -0.39198674770E+03  0.43224629353E+03  0.17376717705E+03 0.  0.
       24    2    3    3    0    0  0.40940998698E+02  0.64461077499E+02 -0.14875298948E+03  0.18533660765E+03  0.79942544176E+02 0.  0.
       -6    2    1    2    0  503  0.91536398695E-01 -0.54664501249E+02 -0.80070138737E+02  0.19822176072E+03  0.17289425447E+03 0.  0.
      -24    2    5    5    0    0  0.45878733483E+02 -0.75309561295E+02 -0.86293961739E+02  0.14739350191E+03  0.80633791695E+02 0.  0.
        5    1    3    3  501    0 -0.41032535097E+02 -0.97965762504E+01 -0.24323375822E+03  0.24690968588E+03  0.47000000000E+01 0. -1.
        2    1    4    4  502    0  0.69279251343E+01  0.62162610404E+02 -0.47618868294E+02  0.78611340762E+02  0.00000000000E+00 0. -1.
       -1    1    4    4    0  502  0.34013073564E+02  0.22984670952E+01 -0.10113412118E+03  0.10672526689E+03  0.00000000000E+00 0.  1.
       -5    1    5    5    0  503 -0.45787197085E+02  0.20645060046E+02  0.62238230017E+01  0.50828258813E+02  0.47000000000E+01 0.  1.
       13    1    6    6    0    0  0.41639632751E+02  0.19323519698E+01 -0.36404431013E+02  0.55343252499E+02  0.00000000000E+00 0. -1.
      -14    1    6    6    0    0  0.42391007319E+01 -0.77241913265E+02 -0.49889530726E+02  0.92050249407E+02  0.00000000000E+00 0.  1.
</event>
<event>
12   0  0.1544783E-01  0.2304886E+03  0.7957747E-01  0.1133304E+00
       21   -1    0    0  501  503  0.00000000000E+00  0.00000000000E+00  0.20983433044E+03  0.20983433044E+03  0.00000000000E+00 0. -1.
       21   -1    0    0  503  504  0.00000000000E+00  0.00000000000E+00 -0.32832943902E+03  0.32832943902E+03  0.00000000000E+00 0.  1.
        6    2    1    2  501    0  0.14754183389E+03  0.91780060757E+01  0.72077098048E+02  0.23909397742E+03  0.17354536419E+03 0.  0.
       24    2    3    3    0    0  0.17309999674E+03  0.23920505334E+02  0.42268311512E+02  0.19688953775E+03  0.80268801358E+02 0.  0.
       -6    2    1    2    0  504 -0.14754183389E+03 -0.91780060757E+01 -0.19057220663E+03  0.29906979205E+03  0.17683932264E+03 0.  0.
      -24    2    5    5    0    0 -0.75455270806E+02 -0.19326860644E+02 -0.19710707539E+02  0.11328708645E+03  0.79865051994E+02 0.  0.
        5    1    3    3  501    0 -0.25558162852E+02 -0.14742499259E+02  0.29808786535E+02  0.42204439665E+02  0.47000000000E+01 0. -1.
      -11    1    4    4    0    0 -0.64637041281E+01  0.10118523106E+02  0.48537092441E+01  0.12950771187E+02  0.00000000000E+00 0.  1.
       12    1    4    4    0    0  0.17956370087E+03  0.13801982228E+02  0.37414602268E+02  0.18393876656E+03  0.00000000000E+00 0. -1.
       -5    1    5    5    0  504 -0.72086563080E+02  0.10148854568E+02 -0.17086149909E+03  0.18578270559E+03  0.47000000000E+01 0.  1.
        3    1    6    6  502    0 -0.45391665785E+02  0.14393251264E+02  0.21399012424E+02  0.52206194435E+02  0.00000000000E+00 0. -1.
       -4    1    6    6    0  502 -0.30063605021E+02 -0.33720111908E+02 -0.41109719964E+02  0.61080892016E+02  0.00000000000E+00 0.  1.
</event>
<event>
12   0  0.1544783E-01  0.2845325E+03  0.7957747E-01  0.1101226E+00
       21   -1    0    0  504  503  0.00000000000E+00  0.00000000000E+00  0.15673405674E+03  0.15673405674E+03  0.00000000000E+00 0. -1.
       21   -1    0    0  501  504  0.00000000000E+00  0.00000000000E+00 -0.56443032560E+03  0.56443032560E+03  0.00000000000E+00 0.  1.
        6    2    1    2  501    0 -0.12686308209E+03 -0.18547797915E+03 -0.93234624634E+02  0.29941853883E+03  0.17453493580E+03 0.  0.
       24    2    3    3    0    0 -0.99377000203E+02 -0.16750193137E+03 -0.13178316065E+03  0.24855890238E+03  0.80511125558E+02 0.  0.
       -6    2    1    2    0  503  0.12686308209E+03  0.18547797915E+03 -0.31446164423E+03  0.42174584351E+03  0.16878124445E+03 0.  0.
      -24    2    5    5    0    0  0.71979705844E+02  0.14018758812E+03 -0.11798201400E+03  0.21272493641E+03  0.80613305525E+02 0.  0.
        5    1    3    3  501    0 -0.27486081887E+02 -0.17976047784E+02  0.38548536011E+02  0.50859636452E+02  0.47000000000E+01 0. -1.
        2    1    4    4  502    0 -0.70394826440E+02 -0.16624195108E+03 -0.10376548129E+03  0.20822846347E+03  0.00000000000E+00 0. -1.
       -1    1    4    4    0  502 -0.28982173763E+02 -0.12599802858E+01 -0.28017679351E+02  0.40330438908E+02  0.00000000000E+00 0.  1.
       -5    1    5    5    0  503  0.54883376246E+02  0.45290391031E+02 -0.19647963023E+03  0.20902090709E+03  0.47000000000E+01 0.  1.
       13    1    6    6    0    0  0.27593457509E+02  0.57949372390E+01  0.41767775563E+00  0.28198486655E+02  0.00000000000E+00 0. -1.
      -14    1    6    6    0    0  0.44386248335E+02  0.13439265088E+03 -0.11839969176E+03  0.18452644976E+03  0.00000000000E+00 0.  1.
</event>
<event>
12   0  0.1544783E-01  0.1866635E+03  0.7957747E-01  0.1167347E+00
       21   -1    0    0  504  503  0.00000000000E+00  0.00000000000E+00  0.36338592603E+02  0.36338592603E+02  0.00000000000E+00 0.  1.
       21   -1    0    0  501  504  0.00000000000E+00  0.00000000000E+00 -0.94109035046E+03  0.94109035046E+03  0.00000000000E+00 0. -1.
        6    2    1    2  501    0 -0.56996782052E+02 -0.41209456727E+02 -0.44579167134E+03  0.48329439202E+03  0.17290576229E+03 0.  0.
       24    2    3    3    0    0 -0.63311226967E+02 -0.82635350072E+02 -0.39973061805E+03  0.42084691422E+03  0.80564543407E+02 0.  0.
       -6    2    1    2    0  503  0.56996782052E+02  0.41209456727E+02 -0.45896008652E+03  0.49413455105E+03  0.16904952242E+03 0.  0.
      -24    2    5    5    0    0 -0.29390394876E+02  0.24030915448E+02 -0.29598078565E+03  0.30881809433E+03  0.79515468327E+02 0.  0.
        5    1    3    3  501    0  0.63144449156E+01  0.41425893345E+02 -0.46061053282E+02  0.62447477799E+02  0.47000000000E+01 0. -1.
      -11    1    4    4    0    0 -0.58861585836E+02 -0.24642017088E+02 -0.12876702581E+03  0.14371103726E+03  0.00000000000E+00 0.  1.
       12    1    4    4    0    0 -0.44496411308E+01 -0.57993332984E+02 -0.27096359225E+03  0.27713587696E+03  0.00000000000E+00 0. -1.
       -5    1    5    5    0  503  0.86387176928E+02  0.17178541279E+02 -0.16297930088E+03  0.18531645672E+03  0.47000000000E+01 0.  1.
        1    1    6    6  502    0 -0.21018150729E+02  0.42301575508E+02 -0.88064087016E+02  0.99932323962E+02  0.00000000000E+00 0. -1.
       -2    1    6    6    0  502 -0.83722441466E+01 -0.18270660060E+02 -0.20791669863E+03  0.20888577036E+03  0.00000000000E+00 0.  1.
</event>
<event>
12   0  0.1544783E-01  0.1887811E+03  0.7957747E-01  0.1165475E+00
       -2   -1    0    0    0  501  0.00000000000E+00  0.00000000000E+00  0.13116954324E+03  0.13116954324E+03  0.00000000000E+00 0. -1.
        2   -1    0    0  502    0  0.00000000000E+00  0.00000000000E+00 -0.44264928947E+03  0.44264928947E+03  0.00000000000E+00 0.  1.
        6    2    1    2  502    0  0.10154439831E+02  0.73688074265E+02  0.23291832267E+02  0.18876236914E+03  0.17191764778E+03 0.  0.
       24    2    3    3    0    0  0.22028180210E+02 -0.11000919898E+02 -0.75311724940E+01  0.97738421387E+02  0.94285839309E+02 0.  0.
       -6    2    1    2    0  501 -0.10154439831E+02 -0.73688074265E+02 -0.33477157850E+03  0.38505646356E+03  0.17510975251E+03 0.  0.
      -24    2    5    5    0    0 -0.34832034064E+02 -0.35813537843E+02 -0.84942232957E+02  0.13112683540E+03  0.86505398279E+02 0.  0.
        5    1    3    3  502    0 -0.11873740378E+02  0.84688994163E+02  0.30823004761E+02  0.91023947758E+02  0.47000000000E+01 0. -1.
      -11    1    4    4    0    0  0.55848914394E+02 -0.10412343799E+02 -0.22034124559E+02  0.60934561519E+02  0.00000000000E+00 0.  1.
       12    1    4    4    0    0 -0.33820734184E+02 -0.58857609913E+00  0.14502952065E+02  0.36803859868E+02  0.00000000000E+00 0. -1.
       -5    1    5    5    0  501  0.24677594233E+02 -0.37874536422E+02 -0.24982934555E+03  0.25392962817E+03  0.47000000000E+01 0.  1.
        1    1    6    6  503    0 -0.15189720040E+02  0.15289545261E+02  0.82218069898E+01  0.23067203978E+02  0.00000000000E+00 0. -1.
       -2    1    6    6    0  503 -0.19642314024E+02 -0.51103083104E+02 -0.93164039947E+02  0.10805963142E+03  0.00000000000E+00 0.  1.
</event>
<event>
12   0  0.1544783E-01  0.2602603E+03  0.7957747E-01  0.1114580E+00
        2   -1    0    0  502    0  0.00000000000E+00  0.00000000000E+00  0.15123744065E+04  0.15123744065E+04  0.00000000000E+00 0. -1.
       -2   -1    0    0    0  501  0.00000000000E+00  0.00000000000E+00 -0.48352555307E+02  0.48352555307E+02  0.00000000000E+00 0.  1.
        6    2    1    2  502    0  0.19086190855E+03  0.99760773029E+01  0.93712412944E+03  0.97191682758E+03  0.17289562025E+03 0.  0.
       24    2    3    3    0    0  0.11972222560E+03 -0.54459768268E+02  0.68463203868E+03  0.70175543400E+03  0.80251997480E+02 0.  0.
       -6    2    1    2    0  501 -0.19086190855E+03 -0.99760773029E+01  0.52689772173E+03  0.58881013421E+03  0.18041168122E+03 0.  0.
      -24    2    5    5    0    0 -0.17404737343E+03  0.44422784863E+02  0.33169002366E+03  0.38541372277E+03  0.79117595358E+02 0.  0.
        5    1    3    3  502    0  0.71139682949E+02  0.64435845570E+02  0.25249209075E+03  0.27016139357E+03  0.47000000000E+01 0. -1.
        4    1    4    4  503    0  0.32411389276E+02 -0.23563911600E+02  0.40944235339E+03  0.41139858633E+03  0.00000000000E+00 0. -1.
       -3    1    4    4    0  503  0.87310836329E+02 -0.30895856667E+02  0.27518968530E+03  0.29035684768E+03  0.00000000000E+00 0.  1.
       -5    1    5    5    0  501 -0.16814535125E+02 -0.54398862166E+02  0.19520769808E+03  0.20339641143E+03  0.47000000000E+01 0.  1.
       13    1    6    6    0    0 -0.10095970841E+03  0.27895547269E+02  0.26557127597E+03  0.28548051930E+03  0.00000000000E+00 0. -1.
      -14    1    6    6    0    0 -0.73087665018E+02  0.16527237594E+02  0.66118747685E+02  0.99933203470E+02  0.00000000000E+00 0.  1.
</event>
<event>
12   0  0.1544783E-01  0.1902025E+03  0.7957747E-01  0.1164233E+00
       21   -1    0    0  501  503  0.00000000000E+00  0.00000000000E+00  0.11196886968E+04  0.11196886968E+04  0.00000000000E+00 0. -1.
       21   -1    0    0  503  504  0.00000000000E+00  0.00000000000E+00 -0.41524440682E+02  0.41524440682E+02  0.00000000000E+00 0. -1.
        6    2    1    2  501    0 -0.71586557204E+02 -0.11063020271E+02  0.81606184434E+03  0.83793431362E+03  0.17586914046E+03 0.  0.
       24    2    3    3    0    0 -0.36042391288E+02 -0.68522183501E+02  0.38739343170E+03  0.40394855214E+03  0.84299574457E+02 0.  0.
       -6    2    1    2    0  504  0.71586557204E+02  0.11063020271E+02  0.26210241176E+03  0.32327882384E+03  0.17482705198E+03 0.  0.
      -24    2    5    5    0    0  0.60844055465E+02  0.36383872290E+02  0.27417672606E+03  0.29287444988E+03  0.74677848303E+02 0.  0.
        5    1    3    3  501    0 -0.35544165916E+02  0.57459163230E+02  0.42866841264E+03  0.43398576148E+03  0.47000000000E+01 0. -1.
        4    1    4    4  502    0  0.20335845374E+02 -0.48707646489E+02  0.21883324337E+03  0.22510879556E+03  0.00000000000E+00 0. -1.
       -3    1    4    4    0  502 -0.56378236662E+02 -0.19814537013E+02  0.16856018833E+03  0.17883975658E+03  0.00000000000E+00 0.  1.
       -5    1    5    5    0  504  0.10742501738E+02 -0.25320852019E+02 -0.12074314301E+02  0.30404373968E+02  0.47000000000E+01 0.  1.
       11    1    6    6    0    0 -0.21721278174E+00 -0.19804182636E+02  0.46221087383E+02  0.50285601817E+02  0.00000000000E+00 0. -1.
      -12    1    6    6    0    0  0.61061268247E+02  0.56188054926E+02  0.22795563868E+03  0.24258884806E+03  0.00000000000E+00 0.  1.
</event>
</LesHouchesEvents>
