<LesHouchesEvents version="1.0">
<header>
<!--
#*********************************************************************
#                                                                    *
#                            MadGraph 5                              *
#                                                                    *
#                           Going Beyond                             *
#                                                                    *
#                   http://madgraph.hep.uiuc.edu                     *
#                   http://madgraph.phys.ucl.ac.be                   *
#                   http://madgraph.roma2.infn.it                    *
#                                                                    *
#                         The MadGraph team                          *
#                                                                    *
#....................................................................*
#                                                                    *
# This file contains all the information necessary to reproduce      *
# the events generated:                                              *
#                                                                    *
# 1. software version                                                *
# 2. proc_card          : code generation info including model       *
# 3. param_card         : model primary parameters in the LH format  *
# 4. run_card           : running parameters (collider and cuts)     *
# 5. pythia_card        : present only if pythia has been run        *
# 6. pgs_card           : present only if pgs has been run           *
# 7. delphes_cards      : present only if delphes has been run       *
#                                                                    *
#                                                                    *
#*********************************************************************
-->
<MGVersion>
# MG    version    : 5.1.4.3
</MGVersion>
<MG5ProcCard>
#************************************************************
#*                        MadGraph 5                        *
#*                                                          *
#*                *                       *                 *
#*                  *        * *        *                   *
#*                    * * * * 5 * * * *                     *
#*                  *        * *        *                   *
#*                *                       *                 *
#*                                                          *
#*                                                          *
#*         VERSION 1.4.3                 2012-03-08         *
#*                                                          *
#*    The MadGraph Development Team - Please visit us at    *
#*    https://server06.fynu.ucl.ac.be/projects/madgraph     *
#*                                                          *
#************************************************************
#*                                                          *
#*               Command File for MadGraph 5                *
#*                                                          *
#*     run as ./bin/mg5  filename                           *
#*                                                          *
#************************************************************
import model sm
generate p p > t t~, (t > b w+, w+ > l+ vl), (t~ > b~ w-, w- > j j)
add process p p > t t~, (t > b w+, w+ > j j), (t~ > b~ w-, w- > l- vl~)
output
</MG5ProcCard>
<MGProcCard>
#*********************************************************************
#                        MadGraph/MadEvent                           *
#                   http://madgraph.hep.uiuc.edu                     *
#                                                                    *
#                          proc_card.dat                             *
#*********************************************************************
#                                                                    *
#            This Files is generated by MADGRAPH 5                   *
#                                                                    *
# WARNING: This Files is generated for MADEVENT (compatibility issue)*
#          This files is NOT a valid MG4 proc_card.dat               *
#          Running this in MG4 will NEVER reproduce the result of MG5*
#                                                                    *
#*********************************************************************
#*********************************************************************
# Process(es) requested : mg2 input                                  *
#*********************************************************************
# Begin PROCESS # This is TAG. Do not modify this line
p p > t t~ , (t > b w+ , w+ > l+ vl) , (t~ > b~ w- , w- > j j)           #Process
# Be carefull the coupling are here in MG5 convention
end_coup           # End the couplings input
done               # this tells MG there are no more procs
# End PROCESS  # This is TAG. Do not modify this line
#*********************************************************************
# Model information                                                  *
#*********************************************************************
# Begin MODEL  # This is TAG. Do not modify this line
sm
# End   MODEL  # This is TAG. Do not modify this line
#*********************************************************************
# Start multiparticle definitions                                    *
#*********************************************************************
# Begin MULTIPARTICLES # This is TAG. Do not modify this line
# End  MULTIPARTICLES # This is TAG. Do not modify this line
</MGProcCard>
<slha>
######################################################################
## PARAM_CARD AUTOMATICALY GENERATED BY MG5 FOLLOWING UFO MODEL   ####
######################################################################
###################################
## INFORMATION FOR MASS
###################################
Block mass 
    5 4.700000e+00 # MB 
    6 1.730000e+02 # MT 
   15 1.777000e+00 # MTA 
   23 9.118800e+01 # MZ 
   25 1.200000e+02 # MH 
##  Not dependent paramater.
## Those values should be edited following the 
## analytical expression. MG5 ignore those values 
## but they are important for interfacing the output of MG5
## to external program such as Pythia.
  12 0.000000 # ve : 0.0 
  14 0.000000 # vm : 0.0 
  16 0.000000 # vt : 0.0 
  2 0.000000 # u : 0.0 
  4 0.000000 # c : 0.0 
  1 0.000000 # d : 0.0 
  3 0.000000 # s : 0.0 
  22 0.000000 # a : 0.0 
  24 80.419002 # w+ : cmath.sqrt(MZ__exp__2/2. + cmath.sqrt(MZ__exp__4/4. - (aEW*cmath.pi*MZ__exp__2)/(Gf*sqrt__2))) 
  21 0.000000 # g : 0.0 
  11 0.000000 # e- : 0.0 
  13 0.000000 # mu- : 0.0 
###################################
## INFORMATION FOR SMINPUTS
###################################
Block sminputs 
    1 1.325070e+02 # aEWM1 
    2 1.166390e-05 # Gf 
    3 1.180000e-01 # aS 
###################################
## INFORMATION FOR YUKAWA
###################################
Block yukawa 
    5 4.200000e+00 # ymb 
    6 1.645000e+02 # ymt 
   15 1.777000e+00 # ymtau 
###################################
## INFORMATION FOR DECAY
###################################
DECAY   6 1.491500e+00 # WT 
DECAY  23 2.441404e+00 # WZ 
DECAY  24 2.047600e+00 # WW 
DECAY  25 5.753088e-03 # WH 
##  Not dependent paramater.
## Those values should be edited following the 
## analytical expression. MG5 ignore those values 
## but they are important for interfacing the output of MG5
## to external program such as Pythia.
DECAY  12 0.000000 # ve : 0.0 
DECAY  14 0.000000 # vm : 0.0 
DECAY  16 0.000000 # vt : 0.0 
DECAY  2 0.000000 # u : 0.0 
DECAY  4 0.000000 # c : 0.0 
DECAY  1 0.000000 # d : 0.0 
DECAY  3 0.000000 # s : 0.0 
DECAY  5 0.000000 # b : 0.0 
DECAY  22 0.000000 # a : 0.0 
DECAY  21 0.000000 # g : 0.0 
DECAY  11 0.000000 # e- : 0.0 
DECAY  13 0.000000 # mu- : 0.0 
DECAY  15 0.000000 # ta- : 0.0 
</slha>
<MGRunCard>
#*********************************************************************
#                       MadGraph/MadEvent                            *
#                  http://madgraph.hep.uiuc.edu                      *
#                                                                    *
#                        run_card.dat                                *
#                                                                    *
#  This file is used to set the parameters of the run.               *
#                                                                    *
#  Some notation/conventions:                                        *
#                                                                    *
#   Lines starting with a '# ' are info or comments                  *
#                                                                    *
#   mind the format:   value    = variable     ! comment             *
#*********************************************************************
#
#*******************                                                 
# Running parameters
#*******************                                                 
#                                                                    
#*********************************************************************
# Tag name for the run (one word)                                    *
#*********************************************************************
  tag_1     = run_tag ! name of the run 
#*********************************************************************
# Run to generate the grid pack                                      *
#*********************************************************************
  .false.     = gridpack  !True = setting up the grid pack
#*********************************************************************
# Number of events and rnd seed                                      *
# Warning: Do not generate more than 100K event in a single run      *
#*********************************************************************
  1000 = nevents ! Number of unweighted events requested 
      31 = iseed   ! rnd seed (0=assigned automatically=default))
#*********************************************************************
# Collider type and energy                                           *
#*********************************************************************
        1     = lpp1  ! beam 1 type (0=NO PDF)
        1     = lpp2  ! beam 2 type (0=NO PDF)
     3500     = ebeam1  ! beam 1 energy in GeV
     3500     = ebeam2  ! beam 2 energy in GeV
#*********************************************************************
# Beam polarization from -100 (left-handed) to 100 (right-handed)    *
#*********************************************************************
        0     = polbeam1 ! beam polarization for beam 1
        0     = polbeam2 ! beam polarization for beam 2
#*********************************************************************
# PDF CHOICE: this automatically fixes also alpha_s and its evol.    *
#*********************************************************************
 'cteq6l1'    = pdlabel     ! PDF set                                     
#*********************************************************************
# Renormalization and factorization scales                           *
#*********************************************************************
 F        = fixed_ren_scale  ! if .true. use fixed ren scale
 F        = fixed_fac_scale  ! if .true. use fixed fac scale
 91.1880  = scale            ! fixed ren scale
 91.1880  = dsqrt_q2fact1    ! fixed fact scale for pdf1
 91.1880  = dsqrt_q2fact2    ! fixed fact scale for pdf2
 1        = scalefact        ! scale factor for event-by-event scales
#*********************************************************************
# Matching - Warning! ickkw > 1 is still beta
#*********************************************************************
 0        = ickkw            ! 0 no matching, 1 MLM, 2 CKKW matching
 1        = highestmult      ! for ickkw=2, highest mult group
 1        = ktscheme         ! for ickkw=1, 1 Durham kT, 2 Pythia pTE
 1        = alpsfact         ! scale factor for QCD emission vx
 F        = chcluster        ! cluster only according to channel diag
 T        = pdfwgt           ! for ickkw=1, perform pdf reweighting
#*********************************************************************
# Automatic ptj and mjj cuts if xqcut > 0
# (turn off for VBF and single top processes)
#**********************************************************
   T  = auto_ptj_mjj  ! Automatic setting of ptj and mjj
#**********************************************************
#                                                                    
#**********************************
# BW cutoff (M+/-bwcutoff*Gamma)
#**********************************
  15  = bwcutoff      ! (M+/-bwcutoff*Gamma)
#**********************************************************
# Apply pt/E/eta/dr/mij cuts on decay products or not
# (note that etmiss/ptll/ptheavy/ht/sorted cuts always apply)
#**********************************************************
   T  = cut_decays    ! Cut decay products 
#*************************************************************
# Number of helicities to sum per event (0 = all helicities)
# 0 gives more stable result, but longer run time (needed for
# long decay chains e.g.).
# Use >=2 if most helicities contribute, e.g. pure QCD.
#*************************************************************
   0  = nhel          ! Number of helicities used per event
#*******************                                                 
# Standard Cuts
#*******************                                                 
#                                                                    
#*********************************************************************
# Minimum and maximum pt's                                           *
#*********************************************************************
 20  = ptj       ! minimum pt for the jets 
 20  = ptb       ! minimum pt for the b 
  0  = pta       ! minimum pt for the photons 
  0  = ptl       ! minimum pt for the charged leptons 
  0  = misset    ! minimum missing Et (sum of neutrino's momenta)
  0  = ptheavy   ! minimum pt for one heavy final state
 1.0 = ptonium   ! minimum pt for the quarkonium states
 1d5 = ptjmax    ! maximum pt for the jets
 1d5 = ptbmax    ! maximum pt for the b
 1d5 = ptamax    ! maximum pt for the photons
 1d5 = ptlmax    ! maximum pt for the charged leptons
 1d5 = missetmax ! maximum missing Et (sum of neutrino's momenta)
#*********************************************************************
# Minimum and maximum E's (in the lab frame)                         *
#*********************************************************************
  0  = ej     ! minimum E for the jets 
  0  = eb     ! minimum E for the b 
  0  = ea     ! minimum E for the photons 
  0  = el     ! minimum E for the charged leptons 
 1d5  = ejmax ! maximum E for the jets
 1d5  = ebmax ! maximum E for the b
 1d5  = eamax ! maximum E for the photons
 1d5  = elmax ! maximum E for the charged leptons
#*********************************************************************
# Maximum and minimum rapidity                                       *
#*********************************************************************
   5  = etaj    ! max rap for the jets 
 1d2  = etab    ! max rap for the b 
 2.5  = etaa    ! max rap for the photons 
 2.5  = etal    ! max rap for the charged leptons 
 0.6  = etaonium ! max rap for the quarkonium states
 0d0  = etajmin ! min rap for the jets
 0d0  = etabmin ! min rap for the b
 0d0  = etaamin ! min rap for the photons
 0d0  = etalmin ! main rap for the charged leptons
#*********************************************************************
# Minimum and maximum DeltaR distance                                *
#*********************************************************************
 0.4 = drjj    ! min distance between jets 
 0.4 = drbb    ! min distance between b's 
 0   = drll    ! min distance between leptons 
 0   = draa    ! min distance between gammas 
 0.4 = drbj    ! min distance between b and jet 
 0   = draj    ! min distance between gamma and jet 
 0   = drjl    ! min distance between jet and lepton 
 0   = drab    ! min distance between gamma and b 
 0   = drbl    ! min distance between b and lepton 
 0   = dral    ! min distance between gamma and lepton 
 1d2 = drjjmax ! max distance between jets
 1d2 = drbbmax ! max distance between b's
 1d2 = drllmax ! max distance between leptons
 1d2 = draamax ! max distance between gammas
 1d2 = drbjmax ! max distance between b and jet
 1d2 = drajmax ! max distance between gamma and jet
 1d2 = drjlmax ! max distance between jet and lepton
 1d2 = drabmax ! max distance between gamma and b
 1d2 = drblmax ! max distance between b and lepton
 1d2 = dralmax ! maxdistance between gamma and lepton
#*********************************************************************
# Minimum and maximum invariant mass for pairs                       *
#*********************************************************************
 0   = mmjj    ! min invariant mass of a jet pair 
 0   = mmbb    ! min invariant mass of a b pair 
 0   = mmaa    ! min invariant mass of gamma gamma pair
 0   = mmll    ! min invariant mass of l+l- (same flavour) lepton pair
 1d5 = mmjjmax ! max invariant mass of a jet pair
 1d5 = mmbbmax ! max invariant mass of a b pair
 1d5 = mmaamax ! max invariant mass of gamma gamma pair
 1d5 = mmllmax ! max invariant mass of l+l- (same flavour) lepton pair
#*********************************************************************
# Minimum and maximum invariant mass for all letpons                 *
#*********************************************************************
 0   = mmnl    ! min invariant mass for all letpons (l+- and vl) 
 1d5 = mmnlmax ! max invariant mass for all letpons (l+- and vl) 
#*********************************************************************
# Minimum and maximum pt for 4-momenta sum of leptons                *
#*********************************************************************
 0   = ptllmin  ! Minimum pt for 4-momenta sum of leptons(l and vl)
 1d5 = ptllmax  ! Maximum pt for 4-momenta sum of leptons(l and vl)
#*********************************************************************
# Inclusive cuts                                                     *
#*********************************************************************
 0  = xptj ! minimum pt for at least one jet  
 0  = xptb ! minimum pt for at least one b 
 0  = xpta ! minimum pt for at least one photon 
 0  = xptl ! minimum pt for at least one charged lepton 
#*********************************************************************
# Control the pt's of the jets sorted by pt                          *
#*********************************************************************
 0   = ptj1min ! minimum pt for the leading jet in pt
 0   = ptj2min ! minimum pt for the second jet in pt
 0   = ptj3min ! minimum pt for the third jet in pt
 0   = ptj4min ! minimum pt for the fourth jet in pt
 1d5 = ptj1max ! maximum pt for the leading jet in pt 
 1d5 = ptj2max ! maximum pt for the second jet in pt
 1d5 = ptj3max ! maximum pt for the third jet in pt
 1d5 = ptj4max ! maximum pt for the fourth jet in pt
 0   = cutuse  ! reject event if fails any (0) / all (1) jet pt cuts
#*********************************************************************
# Control the Ht(k)=Sum of k leading jets                            *
#*********************************************************************
 0   = htjmin ! minimum jet HT=Sum(jet pt)
 1d5 = htjmax ! maximum jet HT=Sum(jet pt)
 0   = ihtmin  !inclusive Ht for all partons (including b)
 1d5 = ihtmax  !inclusive Ht for all partons (including b)
 0   = ht2min ! minimum Ht for the two leading jets
 0   = ht3min ! minimum Ht for the three leading jets
 0   = ht4min ! minimum Ht for the four leading jets
 1d5 = ht2max ! maximum Ht for the two leading jets
 1d5 = ht3max ! maximum Ht for the three leading jets
 1d5 = ht4max ! maximum Ht for the four leading jets
#*********************************************************************
# WBF cuts                                                           *
#*********************************************************************
 0   = xetamin ! minimum rapidity for two jets in the WBF case  
 0   = deltaeta ! minimum rapidity for two jets in the WBF case 
#*********************************************************************
# maximal pdg code for quark to be considered as a light jet         *
# (otherwise b cuts are applied)                                     *
#*********************************************************************
 4 = maxjetflavor    ! Maximum jet pdg code
#*********************************************************************
# Jet measure cuts                                                   *
#*********************************************************************
 0   = xqcut   ! minimum kt jet measure between partons
#*********************************************************************
</MGRunCard>
<MGGenerationInfo>
#  Number of Events        :        1000
#  Integrated weight (pb)  :  .15233E+02
#  Truncated wgt (pb)      :  .00000E+00
#  Unit wgt                :  .15233E-01
</MGGenerationInfo>
</header>
<init>
     2212     2212  0.35000000000E+04  0.35000000000E+04 0 0 10042 10042 3  1
  0.15233320000E+02  0.10043417509E+00  0.15233320000E-01   0
</init>
<event>
12   0  0.1523332E-01  0.4651443E+03  0.7957747E-01  0.1033003E+00
       21   -1    0    0  504  503  0.00000000000E+00  0.00000000000E+00  0.50324203515E+03  0.50324203515E+03  0.00000000000E+00 0.  1.
       21   -1    0    0  501  504  0.00000000000E+00  0.00000000000E+00 -0.50974715226E+03  0.50974715226E+03  0.00000000000E+00 0. -1.
        6    2    1    2  501    0 -0.39799380589E+03  0.16674520027E+03  0.19745069948E+03  0.50509432956E+03  0.17300425339E+03 0.  0.
       24    2    3    3    0    0 -0.34153014916E+03  0.10464360755E+03  0.20776632158E+03  0.42039926236E+03  0.77301798321E+02 0.  0.
       -6    2    1    2    0  503  0.39799380589E+03 -0.16674520027E+03 -0.20395581660E+03  0.50789485785E+03  0.17365534879E+03 0.  0.
      -24    2    5    5    0    0  0.25760442667E+03 -0.17851519394E+03 -0.14290380970E+03  0.35428122533E+03  0.82861165125E+02 0.  0.
        5    1    3    3  501    0 -0.56463656733E+02  0.62101592715E+02 -0.10315622096E+02  0.84695067204E+02  0.47000000000E+01 0. -1.
      -13    1    4    4    0    0 -0.54003827228E+02  0.44599183344E+02  0.56621653353E+02  0.90063933618E+02  0.00000000000E+00 0.  1.
       14    1    4    4    0    0 -0.28752632193E+03  0.60044424206E+02  0.15114466822E+03  0.33033532874E+03  0.00000000000E+00 0. -1.
       -5    1    5    5    0  503  0.14038937922E+03  0.11769993674E+02 -0.61052006899E+02  0.15361363252E+03  0.47000000000E+01 0.  1.
        3    1    6    6  502    0  0.23514669000E+03 -0.12539448629E+03 -0.11608063242E+03  0.29067586111E+03  0.00000000000E+00 0. -1.
       -4    1    6    6    0  502  0.22457736669E+02 -0.53120707652E+02 -0.26823177284E+02  0.63605364218E+02  0.00000000000E+00 0.  1.
</event>
<event>
12   0  0.1523332E-01  0.2334293E+03  0.7957747E-01  0.1131320E+00
       -1   -1    0    0    0  501  0.00000000000E+00  0.00000000000E+00  0.39335463926E+02  0.39335463926E+02  0.00000000000E+00 0.  1.
        1   -1    0    0  502    0  0.00000000000E+00  0.00000000000E+00 -0.17590760430E+04  0.17590760430E+04  0.00000000000E+00 0. -1.
        6    2    1    2  502    0  0.23216180714E+02 -0.15460312724E+03 -0.44466858145E+03  0.50210660283E+03  0.17303113963E+03 0.  0.
       24    2    3    3    0    0  0.47887336590E+02 -0.87324769144E+02 -0.14353989925E+03  0.19253332129E+03  0.80910844882E+02 0.  0.
       -6    2    1    2    0  501 -0.23216180714E+02  0.15460312724E+03 -0.12750719977E+04  0.12963049041E+04  0.17365680883E+03 0.  0.
      -24    2    5    5    0    0 -0.73240502846E+02  0.13479825052E+03 -0.10851254601E+04  0.10988297334E+04  0.79967362830E+02 0.  0.
        5    1    3    3  502    0 -0.24671155877E+02 -0.67278358096E+02 -0.30112868220E+03  0.30957328154E+03  0.47000000000E+01 0. -1.
      -11    1    4    4    0    0  0.13479584353E+02  0.11576654497E+02 -0.46453357874E+02  0.49735626883E+02  0.00000000000E+00 0.  1.
       12    1    4    4    0    0  0.34407752237E+02 -0.98901423641E+02 -0.97086541375E+02  0.14279769441E+03  0.00000000000E+00 0. -1.
       -5    1    5    5    0  501  0.50024322132E+02  0.19804876718E+02 -0.18994653756E+03  0.19747517079E+03  0.47000000000E+01 0.  1.
        3    1    6    6  503    0 -0.16905883093E+02  0.81939758885E+02 -0.76288353469E+03  0.76745763431E+03  0.00000000000E+00 0. -1.
       -4    1    6    6    0  503 -0.56334619752E+02  0.52858491637E+02 -0.32224192542E+03  0.33137209904E+03  0.00000000000E+00 0.  1.
</event>
<event>
12   0  0.1523332E-01  0.4141187E+03  0.7957747E-01  0.1048357E+00
        2   -1    0    0  502    0  0.00000000000E+00  0.00000000000E+00  0.34225942257E+03  0.34225942257E+03  0.00000000000E+00 0. -1.
       -2   -1    0    0    0  501  0.00000000000E+00  0.00000000000E+00 -0.53324884963E+03  0.53324884963E+03  0.00000000000E+00 0.  1.
        6    2    1    2  502    0  0.91704024730E+02  0.36499354177E+03 -0.20304612450E+03  0.46125241392E+03  0.17290502302E+03 0.  0.
       24    2    3    3    0    0  0.11943485946E+03  0.33301796991E+03 -0.14797054014E+03  0.39163311786E+03  0.79470524850E+02 0.  0.
       -6    2    1    2    0  501 -0.91704024730E+02 -0.36499354177E+03  0.12056697443E+02  0.41425585828E+03  0.17272127399E+03 0.  0.
      -24    2    5    5    0    0  0.16761698024E+02 -0.15669510868E+03  0.24561557489E+02  0.17902934668E+03  0.81326042941E+02 0.  0.
        5    1    3    3  502    0 -0.27730834725E+02  0.31975571851E+02 -0.55075584365E+02  0.69619296052E+02  0.47000000000E+01 0. -1.
        4    1    4    4  503    0  0.12136901237E+03  0.24328067937E+03 -0.12342460597E+03  0.29857923484E+03  0.00000000000E+00 0. -1.
       -3    1    4    4    0  503 -0.19341529144E+01  0.89737290545E+02 -0.24545934169E+02  0.93053883025E+02  0.00000000000E+00 0.  1.
       -5    1    5    5    0  501 -0.10846572275E+03 -0.20829843308E+03 -0.12504860046E+02  0.23522651161E+03  0.47000000000E+01 0.  1.
       11    1    6    6    0    0 -0.49523991196E+01 -0.68296970064E+01 -0.19560367300E+02  0.21302088798E+02  0.00000000000E+00 0. -1.
      -12    1    6    6    0    0  0.21714097144E+02 -0.14986541168E+03  0.44121924789E+02  0.15772725788E+03  0.00000000000E+00 0.  1.
</event>
<event>
12   0  0.1523332E-01  0.1894596E+03  0.7957747E-01  0.1164880E+00
       21   -1    0    0  504  503  0.00000000000E+00  0.00000000000E+00  0.30976650695E+03  0.30976650695E+03  0.00000000000E+00 0. -1.
       21   -1    0    0  501  504  0.00000000000E+00  0.00000000000E+00 -0.11782661331E+03  0.11782661331E+03  0.00000000000E+00 0. -1.
        6    2    1    2  501    0  0.49558527034E+02 -0.59914222435E+02  0.66166326482E+02  0.20068111248E+03  0.17276910746E+03 0.  0.
       24    2    3    3    0    0 -0.27849307876E+02  0.39029597026E+01  0.48647757457E+02  0.98732125714E+02  0.81182580020E+02 0.  0.
       -6    2    1    2    0  503 -0.49558527034E+02  0.59914222435E+02  0.12577356716E+03  0.22691200778E+03  0.17211713287E+03 0.  0.
      -24    2    5    5    0    0 -0.17740768448E+02 -0.26197354655E+02  0.98820747894E+02  0.13111995207E+03  0.80161495498E+02 0.  0.
        5    1    3    3  501    0  0.77407834910E+02 -0.63817182137E+02  0.17518569025E+02  0.10194898676E+03  0.47000000000E+01 0. -1.
        2    1    4    4  502    0  0.23027703062E+02 -0.17252952075E+02  0.27229366687E+02  0.39615374210E+02  0.00000000000E+00 0. -1.
       -1    1    4    4    0  502 -0.50877010939E+02  0.21155911777E+02  0.21418390770E+02  0.59116751504E+02  0.00000000000E+00 0.  1.
       -5    1    5    5    0  503 -0.31817758586E+02  0.86111577090E+02  0.26952819265E+02  0.95792055708E+02  0.47000000000E+01 0.  1.
       13    1    6    6    0    0 -0.34174215346E+02  0.37185643072E+01  0.97478914878E+01  0.35731304251E+02  0.00000000000E+00 0. -1.
      -14    1    6    6    0    0  0.16433446898E+02 -0.29915918963E+02  0.89072856406E+02  0.95388647819E+02  0.00000000000E+00 0.  1.
</event>
<event>
12   0  0.1523332E-01  0.1767817E+03  0.7957747E-01  0.1176462E+00
       21   -1    0    0  504  503  0.00000000000E+00  0.00000000000E+00  0.95751845173E+02  0.95751845173E+02  0.00000000000E+00 0.  1.
       21   -1    0    0  501  504  0.00000000000E+00  0.00000000000E+00 -0.50160727043E+03  0.50160727043E+03  0.00000000000E+00 0.  1.
        6    2    1    2  501    0  0.80466841329E-01 -0.31898787363E+02 -0.37970431374E+03  0.41865364437E+03  0.17343001171E+03 0.  0.
       24    2    3    3    0    0 -0.13048568046E+02 -0.56914048071E+02 -0.37714301402E+03  0.38989977365E+03  0.79846768697E+02 0.  0.
       -6    2    1    2    0  503 -0.80466841329E-01  0.31898787363E+02 -0.26151111523E+02  0.17870547124E+03  0.17387991749E+03 0.  0.
      -24    2    5    5    0    0  0.16641502957E+02 -0.47679664561E+02 -0.28531628634E+02  0.97218594095E+02  0.78019940862E+02 0.  0.
        5    1    3    3  501    0  0.13129034887E+02  0.25015260708E+02 -0.25612997214E+01  0.28753870724E+02  0.47000000000E+01 0. -1.
        2    1    4    4  502    0 -0.22991799671E+02  0.13438116345E+02 -0.77491965709E+02  0.81940286627E+02  0.00000000000E+00 0. -1.
       -1    1    4    4    0  502  0.99432316248E+01 -0.70352164416E+02 -0.29965104831E+03  0.30795948702E+03  0.00000000000E+00 0.  1.
       -5    1    5    5    0  503 -0.16721969799E+02  0.79578451925E+02  0.23805171112E+01  0.81486877142E+02  0.47000000000E+01 0.  1.
       13    1    6    6    0    0  0.12973956942E+02  0.13195184704E+02 -0.31089202717E+02  0.36179759309E+02  0.00000000000E+00 0. -1.
      -14    1    6    6    0    0  0.36675460149E+01 -0.60874849265E+02  0.25575740828E+01  0.61038834786E+02  0.00000000000E+00 0.  1.
</event>
<event>
12   0  0.1523332E-01  0.2609651E+03  0.7957747E-01  0.1114170E+00
       21   -1    0    0  501  503  0.00000000000E+00  0.00000000000E+00  0.28830091255E+03  0.28830091255E+03  0.00000000000E+00 0. -1.
       21   -1    0    0  503  504  0.00000000000E+00  0.00000000000E+00 -0.30874694418E+03  0.30874694418E+03  0.00000000000E+00 0. -1.
        6    2    1    2  501    0 -0.19456843080E+03 -0.27263476408E+02  0.13605235668E+03  0.29430091525E+03  0.17176324854E+03 0.  0.
       24    2    3    3    0    0 -0.14982281089E+03 -0.64525938987E+01  0.26488966129E+02  0.17404498034E+03  0.84270274853E+02 0.  0.
       -6    2    1    2    0  504  0.19456843080E+03  0.27263476408E+02 -0.15649838831E+03  0.30274694148E+03  0.16900826495E+03 0.  0.
      -24    2    5    5    0    0  0.15232375833E+03 -0.18075857228E+02 -0.15736424473E+03  0.24059304189E+03  0.97939993466E+02 0.  0.
        5    1    3    3  501    0 -0.44745619906E+02 -0.20810882509E+02  0.10956339055E+03  0.12025593491E+03  0.47000000000E+01 0. -1.
      -13    1    4    4    0    0 -0.58250407892E+01  0.87219899523E+01 -0.19483311601E+02  0.22126988947E+02  0.00000000000E+00 0.  1.
       14    1    4    4    0    0 -0.14399777010E+03 -0.15174583851E+02  0.45972277730E+02  0.15191799140E+03  0.00000000000E+00 0. -1.
       -5    1    5    5    0  504  0.42244672471E+02  0.45339333636E+02  0.86585641933E+00  0.62153899589E+02  0.47000000000E+01 0.  1.
        3    1    6    6  502    0  0.10412326072E+03  0.35352524966E+02 -0.98471836021E+02  0.14760811947E+03  0.00000000000E+00 0. -1.
       -4    1    6    6    0  502  0.48200497613E+02 -0.53428382194E+02 -0.58892408706E+02  0.92984922419E+02  0.00000000000E+00 0.  1.
</event>
<event>
12   0  0.1523332E-01  0.1768972E+03  0.7957747E-01  0.1176352E+00
       21   -1    0    0  501  503  0.00000000000E+00  0.00000000000E+00  0.46995776680E+02  0.46995776680E+02  0.00000000000E+00 0.  1.
       21   -1    0    0  503  504  0.00000000000E+00  0.00000000000E+00 -0.71867494480E+03  0.71867494480E+03  0.00000000000E+00 0.  1.
        6    2    1    2  501    0  0.31064217625E+02 -0.19603245486E+02 -0.22980046888E+03  0.29000149133E+03  0.17304143037E+03 0.  0.
       24    2    3    3    0    0  0.98623194184E+01 -0.61600280493E+02 -0.70521099631E+02  0.12385312719E+03  0.80464350618E+02 0.  0.
       -6    2    1    2    0  504 -0.31064217625E+02  0.19603245486E+02 -0.44187869924E+03  0.47566923015E+03  0.17220673280E+03 0.  0.
      -24    2    5    5    0    0  0.33802238439E+01 -0.51422114411E+02 -0.25772781890E+03  0.27525800784E+03  0.81778251905E+02 0.  0.
        5    1    3    3  501    0  0.21201898207E+02  0.41997035007E+02 -0.15927936925E+03  0.16614836414E+03  0.47000000000E+01 0. -1.
        2    1    4    4  502    0 -0.67239218969E+01 -0.76642855033E+02 -0.65175155114E+02  0.10083223293E+03  0.00000000000E+00 0. -1.
       -1    1    4    4    0  502  0.16586241315E+02  0.15042574541E+02 -0.53459445164E+01  0.23020894260E+02  0.00000000000E+00 0.  1.
       -5    1    5    5    0  504 -0.34444441469E+02  0.71025359897E+02 -0.18415088034E+03  0.20041122231E+03  0.47000000000E+01 0.  1.
       13    1    6    6    0    0  0.19146473588E+02 -0.51426514642E+02 -0.81057631645E+02  0.97885716562E+02  0.00000000000E+00 0. -1.
      -14    1    6    6    0    0 -0.15766249744E+02  0.44002308975E-02 -0.17667018725E+03  0.17737229128E+03  0.00000000000E+00 0.  1.
</event>
<event>
12   0  0.1523332E-01  0.2242003E+03  0.7957747E-01  0.1137655E+00
       21   -1    0    0  501  503  0.00000000000E+00  0.00000000000E+00  0.12973710995E+03  0.12973710995E+03  0.00000000000E+00 0. -1.
       21   -1    0    0  503  504  0.00000000000E+00  0.00000000000E+00 -0.44822800227E+03  0.44822800227E+03  0.00000000000E+00 0. -1.
        6    2    1    2  501    0 -0.13015873868E+03  0.13132415943E+02 -0.39776471899E+02  0.22026759400E+03  0.17269014924E+03 0.  0.
       24    2    3    3    0    0 -0.34864580906E+02  0.62749903403E+02 -0.33507006464E+02  0.11254448708E+03  0.79940307175E+02 0.  0.
       -6    2    1    2    0  504  0.13015873868E+03 -0.13132415943E+02 -0.27871442042E+03  0.35769751822E+03  0.18207698589E+03 0.  0.
      -24    2    5    5    0    0  0.16132789543E+03 -0.10892231440E+02 -0.26867373737E+03  0.32453971258E+03  0.83636818081E+02 0.  0.
        5    1    3    3  501    0 -0.95294157771E+02 -0.49617487460E+02 -0.62694654356E+01  0.10772310692E+03  0.47000000000E+01 0. -1.
        4    1    4    4  502    0 -0.47192927852E+02  0.43652381877E+02  0.84366356934E+01  0.64837332646E+02  0.00000000000E+00 0. -1.
       -3    1    4    4    0  502  0.12328346946E+02  0.19097521525E+02 -0.41943642157E+02  0.47707154434E+02  0.00000000000E+00 0.  1.
       -5    1    5    5    0  504 -0.31169156752E+02 -0.22401845034E+01 -0.10040683056E+02  0.33157805649E+02  0.47000000000E+01 0.  1.
       11    1    6    6    0    0  0.75817263364E+02  0.10060173049E+02 -0.57304816761E+02  0.95568334346E+02  0.00000000000E+00 0. -1.
      -12    1    6    6    0    0  0.85510632065E+02 -0.20952404489E+02 -0.21136892061E+03  0.22897137823E+03  0.00000000000E+00 0.  1.
</event>
<event>
12   0  0.1523332E-01  0.1786865E+03  0.7957747E-01  0.1174655E+00
       21   -1    0    0  504  503  0.00000000000E+00  0.00000000000E+00  0.11144105985E+03  0.11144105985E+03  0.00000000000E+00 0. -1.
       21   -1    0    0  501  504  0.00000000000E+00  0.00000000000E+00 -0.29599239440E+03  0.29599239440E+03  0.00000000000E+00 0. -1.
        6    2    1    2  501    0  0.80015183603E+01  0.24058043717E+02 -0.13653277160E+03  0.22487791158E+03  0.17687866924E+03 0.  0.
       24    2    3    3    0    0  0.61834997551E+01  0.71123330683E+02 -0.14085046642E+03  0.17734709087E+03  0.80724054120E+02 0.  0.
       -6    2    1    2    0  503 -0.80015183603E+01 -0.24058043717E+02 -0.48018562953E+02  0.18255554266E+03  0.17429265620E+03 0.  0.
      -24    2    5    5    0    0 -0.68563795230E+02 -0.72371323199E+01 -0.54886464943E+02  0.11915214751E+03  0.80195636546E+02 0.  0.
        5    1    3    3  501    0  0.18180186052E+01 -0.47065286966E+02  0.43176948189E+01  0.47530820710E+02  0.47000000000E+01 0. -1.
        2    1    4    4  502    0 -0.20752758603E+02  0.74283093556E+02 -0.82138857084E+02  0.11267407342E+03  0.00000000000E+00 0. -1.
       -1    1    4    4    0  502  0.26936258358E+02 -0.31597628727E+01 -0.58711609331E+02  0.64673017449E+02  0.00000000000E+00 0.  1.
       -5    1    5    5    0  503  0.60562276869E+02 -0.16820911397E+02  0.68679019897E+01  0.63403395158E+02  0.47000000000E+01 0.  1.
       13    1    6    6    0    0  0.12208287841E+00  0.18120397443E+02 -0.40729805413E+02  0.44578927272E+02  0.00000000000E+00 0. -1.
      -14    1    6    6    0    0 -0.68685878108E+02 -0.25357529763E+02 -0.14156659530E+02  0.74573220235E+02  0.00000000000E+00 0.  1.
</event>
<event>
12   0  0.1523332E-01  0.1843972E+03  0.7957747E-01  0.1169382E+00
       21   -1    0    0  504  503  0.00000000000E+00  0.00000000000E+00  0.54137737311E+03  0.54137737311E+03  0.00000000000E+00 0.  1.
       21   -1    0    0  501  504  0.00000000000E+00  0.00000000000E+00 -0.16158450373E+03  0.16158450373E+03  0.00000000000E+00 0.  1.
        6    2    1    2  501    0 -0.63348304238E+02 -0.13272128893E+02 -0.86619856267E+02  0.20142110540E+03  0.16993617963E+03 0.  0.
       24    2    3    3    0    0  0.30685616717E+02 -0.58146033601E+01 -0.33117676725E+02  0.92873575752E+02  0.80952479120E+02 0.  0.
       -6    2    1    2    0  503  0.63348304238E+02  0.13272128893E+02  0.46641272565E+03  0.50154077144E+03  0.17266487111E+03 0.  0.
      -24    2    5    5    0    0  0.26500400790E+02  0.61130023204E+02  0.39138118617E+03  0.40510442999E+03  0.80568078857E+02 0.  0.
        5    1    3    3  501    0 -0.94033920955E+02 -0.74575255329E+01 -0.53502179543E+02  0.10854752965E+03  0.47000000000E+01 0. -1.
        4    1    4    4  502    0 -0.12781274740E+01  0.34588503268E+02 -0.18870373671E+02  0.39421937683E+02  0.00000000000E+00 0. -1.
       -3    1    4    4    0  502  0.31963744191E+02 -0.40403106628E+02 -0.14247303053E+02  0.53451638069E+02  0.00000000000E+00 0.  1.
       -5    1    5    5    0  503  0.36847903449E+02 -0.47857894311E+02  0.75031539483E+02  0.96436341457E+02  0.47000000000E+01 0.  1.
       11    1    6    6    0    0 -0.55108167697E+01 -0.15500465449E+02  0.29117781334E+02  0.33443664877E+02  0.00000000000E+00 0. -1.
      -12    1    6    6    0    0  0.32011217559E+02  0.76630488653E+02  0.36226340483E+03  0.37166076511E+03  0.00000000000E+00 0.  1.
</event>
<event>
12   0  0.1523332E-01  0.1894288E+03  0.7957747E-01  0.1164907E+00
       -2   -1    0    0    0  501  0.00000000000E+00  0.00000000000E+00  0.14093124247E+03  0.14093124247E+03  0.00000000000E+00 0.  1.
        2   -1    0    0  502    0  0.00000000000E+00  0.00000000000E+00 -0.42067333612E+03  0.42067333612E+03  0.00000000000E+00 0. -1.
        6    2    1    2  502    0 -0.67350442883E+02  0.30622118337E+02  0.36137914288E+02  0.19375010848E+03  0.17538346387E+03 0.  0.
       24    2    3    3    0    0  0.30409716511E+02  0.32154626320E+01  0.29442540176E+02  0.91891915018E+02  0.81499514204E+02 0.  0.
       -6    2    1    2    0  501  0.67350442883E+02 -0.30622118337E+02 -0.31588000794E+03  0.36785447011E+03  0.17338666463E+03 0.  0.
      -24    2    5    5    0    0  0.19045206009E+02  0.46961927159E+02 -0.17824076240E+03  0.20256886294E+03  0.81830510051E+02 0.  0.
        5    1    3    3  502    0 -0.97760159393E+02  0.27406655705E+02  0.66953741122E+01  0.10185819347E+03  0.47000000000E+01 0. -1.
      -11    1    4    4    0    0  0.52348769669E+02  0.15224440756E+02  0.17062588358E+01  0.54544372775E+02  0.00000000000E+00 0.  1.
       12    1    4    4    0    0 -0.21939053158E+02 -0.12008978124E+02  0.27736281340E+02  0.37347542244E+02  0.00000000000E+00 0. -1.
       -5    1    5    5    0  501  0.48305236874E+02 -0.77584045496E+02 -0.13763924554E+03  0.16528560717E+03  0.47000000000E+01 0.  1.
        3    1    6    6  503    0  0.47101896568E+02  0.18499076819E+02 -0.64317726567E+02  0.81838709998E+02  0.00000000000E+00 0. -1.
       -4    1    6    6    0  503 -0.28056690559E+02  0.28462850340E+02 -0.11392303584E+03  0.12073015294E+03  0.00000000000E+00 0.  1.
</event>
<event>
12   0  0.1523332E-01  0.2004674E+03  0.7957747E-01  0.1155604E+00
       21   -1    0    0  504  503  0.00000000000E+00  0.00000000000E+00  0.13168478318E+04  0.13168478318E+04  0.00000000000E+00 0.  1.
       21   -1    0    0  501  504  0.00000000000E+00  0.00000000000E+00 -0.38320267305E+02  0.38320267305E+02  0.00000000000E+00 0. -1.
        6    2    1    2  501    0 -0.10162664902E+03  0.24765043035E+00  0.33283985202E+03  0.38854800333E+03  0.17279799385E+03 0.  0.
       24    2    3    3    0    0 -0.11049938319E+03  0.23642120802E+02  0.33454533993E+03  0.36303280502E+03  0.84280303120E+02 0.  0.
       -6    2    1    2    0  503  0.10162664902E+03 -0.24765043035E+00  0.94568771249E+03  0.96662009579E+03  0.17234013725E+03 0.  0.
      -24    2    5    5    0    0  0.13122865683E+03  0.13632346674E+02  0.87601759955E+03  0.88951660804E+03  0.80163333274E+02 0.  0.
        5    1    3    3  501    0  0.88727341718E+01 -0.23394470371E+02 -0.17054879094E+01  0.25515198307E+02  0.47000000000E+01 0. -1.
      -11    1    4    4    0    0 -0.54883045447E+02 -0.30971587874E+02  0.14852281027E+03  0.16133943443E+03  0.00000000000E+00 0.  1.
       12    1    4    4    0    0 -0.55616337740E+02  0.54613708676E+02  0.18602252966E+03  0.20169337059E+03  0.00000000000E+00 0. -1.
       -5    1    5    5    0  503 -0.29602007819E+02 -0.13879997104E+02  0.69670112940E+02  0.77103487752E+02  0.47000000000E+01 0.  1.
        3    1    6    6  502    0  0.65718042795E+02 -0.30962145802E+02  0.34018286454E+03  0.34785326928E+03  0.00000000000E+00 0. -1.
       -4    1    6    6    0  502  0.65510614039E+02  0.44594492476E+02  0.53583473501E+03  0.54166333876E+03  0.00000000000E+00 0.  1.
</event>
<event>
12   0  0.1523332E-01  0.2383945E+03  0.7957747E-01  0.1128043E+00
       21   -1    0    0  504  503  0.00000000000E+00  0.00000000000E+00  0.28690370457E+03  0.28690370457E+03  0.00000000000E+00 0. -1.
       21   -1    0    0  501  504  0.00000000000E+00  0.00000000000E+00 -0.28680875619E+03  0.28680875619E+03  0.00000000000E+00 0. -1.
        6    2    1    2  501    0  0.14011875428E+03 -0.85959138663E+02 -0.15973097307E+03  0.28669983835E+03  0.17222245711E+03 0.  0.
       24    2    3    3    0    0  0.55720423945E+02  0.22794063756E+02 -0.55616719154E+02  0.11403772592E+03  0.79290910559E+02 0.  0.
       -6    2    1    2    0  503 -0.14011875428E+03  0.85959138663E+02  0.15982592144E+03  0.28701262241E+03  0.17265480426E+03 0.  0.
      -24    2    5    5    0    0 -0.12358757810E+03  0.12388797486E+03  0.14709738296E+03  0.24346974592E+03  0.83772055761E+02 0.  0.
        5    1    3    3  501    0  0.84398330339E+02 -0.10875320242E+03 -0.10411425392E+03  0.17266211243E+03  0.47000000000E+01 0. -1.
      -13    1    4    4    0    0  0.29059033228E+02 -0.25414484249E+02 -0.44651336460E+01  0.38862074575E+02  0.00000000000E+00 0.  1.
       14    1    4    4    0    0  0.26661390717E+02  0.48208548005E+02 -0.51151585508E+02  0.75175651349E+02  0.00000000000E+00 0. -1.
       -5    1    5    5    0  503 -0.16531176184E+02 -0.37928836196E+02  0.12728538481E+02  0.43542876491E+02  0.47000000000E+01 0.  1.
        1    1    6    6  502    0 -0.37204593752E+02  0.51875906348E+02  0.10598979710E+03  0.12373006322E+03  0.00000000000E+00 0. -1.
       -2    1    6    6    0  502 -0.86382984349E+02  0.72012068511E+02  0.41107585864E+02  0.11973968269E+03  0.00000000000E+00 0.  1.
</event>
<event>
12   0  0.1523332E-01  0.1772298E+03  0.7957747E-01  0.1176035E+00
       21   -1    0    0  501  503  0.00000000000E+00  0.00000000000E+00  0.29912640617E+03  0.29912640617E+03  0.00000000000E+00 0.  1.
       21   -1    0    0  503  504  0.00000000000E+00  0.00000000000E+00 -0.25267541855E+03  0.25267541855E+03  0.00000000000E+00 0.  1.
        6    2    1    2  501    0  0.12684268407E+02 -0.34087494859E+02  0.23425101325E+03  0.29374129107E+03  0.17345766314E+03 0.  0.
       24    2    3    3    0    0 -0.26812468176E+02 -0.63259340735E+02  0.21720564017E+03  0.24155294433E+03  0.80304932305E+02 0.  0.
       -6    2    1    2    0  504 -0.12684268407E+02  0.34087494859E+02 -0.18780002563E+03  0.25806053365E+03  0.17321530367E+03 0.  0.
      -24    2    5    5    0    0  0.59287157589E+01  0.25903886883E+02 -0.21285305014E+03  0.22545441987E+03  0.69405428176E+02 0.  0.
        5    1    3    3  501    0  0.39496736582E+02  0.29171845876E+02  0.17045373080E+02  0.52188346744E+02  0.47000000000E+01 0. -1.
        2    1    4    4  502    0 -0.51342177266E+02 -0.62286457660E+02  0.15700943944E+03  0.17654343954E+03  0.00000000000E+00 0. -1.
       -1    1    4    4    0  502  0.24529709090E+02 -0.97288307490E+00  0.60196200736E+02  0.65009504786E+02  0.00000000000E+00 0.  1.
       -5    1    5    5    0  504 -0.18612984166E+02  0.81836079759E+01  0.25053024501E+02  0.32606113778E+02  0.47000000000E+01 0.  1.
       11    1    6    6    0    0 -0.16364230246E+02  0.16201413468E+02 -0.18369220105E+02  0.29456783212E+02  0.00000000000E+00 0. -1.
      -12    1    6    6    0    0  0.22292946005E+02  0.97024734150E+01 -0.19448383003E+03  0.19599763666E+03  0.00000000000E+00 0.  1.
</event>
<event>
12   0  0.1523332E-01  0.3139679E+03  0.7957747E-01  0.1086849E+00
       21   -1    0    0  501  503  0.00000000000E+00  0.00000000000E+00  0.21476011810E+03  0.21476011810E+03  0.00000000000E+00 0.  1.
       21   -1    0    0  503  504  0.00000000000E+00  0.00000000000E+00 -0.11475714923E+04  0.11475714923E+04  0.00000000000E+00 0. -1.
        6    2    1    2  501    0  0.15479354901E+03  0.21171426034E+03  0.61355940049E+02  0.31990681471E+03  0.17260315141E+03 0.  0.
       24    2    3    3    0    0  0.50165000065E+02  0.60751105278E+02 -0.27974801221E+02  0.11560537376E+03  0.79842275236E+02 0.  0.
       -6    2    1    2    0  504 -0.15479354901E+03 -0.21171426034E+03 -0.99416731427E+03  0.10424247957E+04  0.17174642673E+03 0.  0.
      -24    2    5    5    0    0 -0.12937947893E+03 -0.22110138739E+03 -0.96772209643E+03  0.10042746626E+04  0.80353399878E+02 0.  0.
        5    1    3    3  501    0  0.10462854894E+03  0.15096315506E+03  0.89330741270E+02  0.20430144095E+03  0.47000000000E+01 0. -1.
      -13    1    4    4    0    0  0.68538896083E+02  0.35943079230E+02 -0.58264061205E+01  0.77610773924E+02  0.00000000000E+00 0.  1.
       14    1    4    4    0    0 -0.18373896017E+02  0.24808026048E+02 -0.22148395100E+02  0.37994599837E+02  0.00000000000E+00 0. -1.
       -5    1    5    5    0  504 -0.25414070079E+02  0.93871270488E+01 -0.26445217834E+02  0.38150133138E+02  0.47000000000E+01 0.  1.
        3    1    6    6  502    0 -0.13710264094E+03 -0.17813309179E+03 -0.81645835118E+03  0.84683692158E+03  0.00000000000E+00 0. -1.
       -4    1    6    6    0  502  0.77231620067E+01 -0.42968295593E+02 -0.15126374525E+03  0.15743774098E+03  0.00000000000E+00 0.  1.
</event>
<event>
12   0  0.1523332E-01  0.1736993E+03  0.7957747E-01  0.1179440E+00
       21   -1    0    0  501  503  0.00000000000E+00  0.00000000000E+00  0.26570086310E+03  0.26570086310E+03  0.00000000000E+00 0. -1.
       21   -1    0    0  503  504  0.00000000000E+00  0.00000000000E+00 -0.18910508313E+03  0.18910508313E+03  0.00000000000E+00 0. -1.
        6    2    1    2  501    0 -0.26781980313E+01 -0.44616017461E+01  0.18229436332E+03  0.25147463374E+03  0.17315073745E+03 0.  0.
       24    2    3    3    0    0  0.15419092062E+02  0.60924820779E+02  0.83465075139E+02  0.13150707828E+03  0.79863074589E+02 0.  0.
       -6    2    1    2    0  504  0.26781980313E+01  0.44616017461E+01 -0.10569858335E+03  0.20333131249E+03  0.17362129328E+03 0.  0.
      -24    2    5    5    0    0  0.54721225915E+02  0.36202412675E+02 -0.36474979190E+02  0.11097356672E+03  0.81729316371E+02 0.  0.
        5    1    3    3  501    0 -0.18097290094E+02 -0.65386422525E+02  0.98829288185E+02  0.11996755546E+03  0.47000000000E+01 0. -1.
        2    1    4    4  502    0  0.41922038745E+02  0.61244853807E+02  0.68869557044E+02  0.10124922389E+03  0.00000000000E+00 0. -1.
       -1    1    4    4    0  502 -0.26502946682E+02 -0.32003302777E+00  0.14595518095E+02  0.30257854393E+02  0.00000000000E+00 0.  1.
       -5    1    5    5    0  504 -0.52043027884E+02 -0.31740810929E+02 -0.69223604163E+02  0.92357745767E+02  0.47000000000E+01 0.  1.
       11    1    6    6    0    0  0.32561448467E+02 -0.88631159692E+01 -0.48736342029E+02  0.59279286309E+02  0.00000000000E+00 0. -1.
      -12    1    6    6    0    0  0.22159777448E+02  0.45065528644E+02  0.12261362839E+02  0.51694280410E+02  0.00000000000E+00 0.  1.
</event>
<event>
12   0  0.1523332E-01  0.1768339E+03  0.7957747E-01  0.1176412E+00
       21   -1    0    0  501  503  0.00000000000E+00  0.00000000000E+00  0.34141792631E+03  0.34141792631E+03  0.00000000000E+00 0. -1.
       21   -1    0    0  503  504  0.00000000000E+00  0.00000000000E+00 -0.98803057962E+02  0.98803057962E+02  0.00000000000E+00 0. -1.
        6    2    1    2  501    0 -0.16892941358E+02 -0.32500582960E+02  0.18287466029E+03  0.25438819980E+03  0.17299871520E+03 0.  0.
       24    2    3    3    0    0 -0.54060160563E+02 -0.57541307020E+02  0.70145955386E+02  0.13298683674E+03  0.80817947971E+02 0.  0.
       -6    2    1    2    0  504  0.16892941358E+02  0.32500582960E+02  0.59740208054E+02  0.18583278447E+03  0.17211412482E+03 0.  0.
      -24    2    5    5    0    0  0.45212627556E+02  0.16059767001E+00  0.93443720761E+02  0.13100673187E+03  0.79917628609E+02 0.  0.
        5    1    3    3  501    0  0.37167219205E+02  0.25040724059E+02  0.11272870491E+03  0.12140136307E+03  0.47000000000E+01 0. -1.
      -13    1    4    4    0    0  0.11340242623E+02 -0.64030501592E+00 -0.98451815157E+01  0.15031257178E+02  0.00000000000E+00 0.  1.
       14    1    4    4    0    0 -0.65400403186E+02 -0.56901002004E+02  0.79991136902E+02  0.11795557956E+03  0.00000000000E+00 0. -1.
       -5    1    5    5    0  504 -0.28319686198E+02  0.32339985290E+02 -0.33703512707E+02  0.54826052600E+02  0.47000000000E+01 0.  1.
        1    1    6    6  502    0  0.66831271407E+02  0.33164180706E+01  0.54279617943E+02  0.86160863452E+02  0.00000000000E+00 0. -1.
       -2    1    6    6    0  502 -0.21618643851E+02 -0.31558204006E+01  0.39164102818E+02  0.44845868415E+02  0.00000000000E+00 0.  1.
</event>
<event>
12   0  0.1523332E-01  0.2636540E+03  0.7957747E-01  0.1112620E+00
       21   -1    0    0  501  503  0.00000000000E+00  0.00000000000E+00  0.79567738325E+02  0.79567738325E+02  0.00000000000E+00 0. -1.
       21   -1    0    0  503  504  0.00000000000E+00  0.00000000000E+00 -0.96867311159E+03  0.96867311159E+03  0.00000000000E+00 0. -1.
        6    2    1    2  501    0 -0.19590927153E+03 -0.26630349428E+02 -0.27582366494E+03  0.38068718867E+03  0.17249470511E+03 0.  0.
       24    2    3    3    0    0 -0.90935199479E+02 -0.22527143288E+02 -0.23934754672E+03  0.26938135188E+03  0.80637348217E+02 0.  0.
       -6    2    1    2    0  504  0.19590927153E+03  0.26630349428E+02 -0.61328170832E+03  0.66755366125E+03  0.17442424918E+03 0.  0.
      -24    2    5    5    0    0  0.11001243526E+03 -0.33169820001E+02 -0.22486126816E+03  0.26525171608E+03  0.81196736985E+02 0.  0.
        5    1    3    3  501    0 -0.10497407205E+03 -0.41032061400E+01 -0.36476118222E+02  0.11130583679E+03  0.47000000000E+01 0. -1.
        4    1    4    4  502    0 -0.17175163427E+02  0.28217089404E+02 -0.49887347846E+02  0.59832581829E+02  0.00000000000E+00 0. -1.
       -3    1    4    4    0  502 -0.73760036052E+02 -0.50744232692E+02 -0.18946019888E+03  0.20954877005E+03  0.00000000000E+00 0.  1.
       -5    1    5    5    0  504  0.85896836267E+02  0.59800169429E+02 -0.38842044017E+03  0.40230194517E+03  0.47000000000E+01 0.  1.
       11    1    6    6    0    0  0.70369753177E+02  0.19735365072E+02 -0.98632966245E+02  0.12275931259E+03  0.00000000000E+00 0. -1.
      -12    1    6    6    0    0  0.39642682086E+02 -0.52905185073E+02 -0.12622830191E+03  0.14249240350E+03  0.00000000000E+00 0.  1.
</event>
<event>
12   0  0.1523332E-01  0.2543725E+03  0.7957747E-01  0.1118059E+00
       21   -1    0    0  504  503  0.00000000000E+00  0.00000000000E+00  0.38141737785E+03  0.38141737785E+03  0.00000000000E+00 0. -1.
       21   -1    0    0  501  504  0.00000000000E+00  0.00000000000E+00 -0.24688415004E+03  0.24688415004E+03  0.00000000000E+00 0.  1.
        6    2    1    2  501    0 -0.12094844091E+02 -0.18402711576E+03 -0.10927771023E+03  0.27685192521E+03  0.17519448037E+03 0.  0.
       24    2    3    3    0    0  0.18853126327E+02 -0.19388341558E+03 -0.11969176630E+03  0.24242132715E+03  0.80596288539E+02 0.  0.
       -6    2    1    2    0  503  0.12094844091E+02  0.18402711576E+03  0.24381093804E+03  0.35144960269E+03  0.17338046353E+03 0.  0.
      -24    2    5    5    0    0  0.49835514227E+02  0.19030066710E+03  0.19064722017E+03  0.28578236180E+03  0.81408067042E+02 0.  0.
        5    1    3    3  501    0 -0.30947970418E+02  0.98562998221E+01  0.10414056070E+02  0.34430598064E+02  0.47000000000E+01 0. -1.
      -11    1    4    4    0    0  0.13390165811E+02 -0.61184674504E+02  0.14650488256E+01  0.62649878712E+02  0.00000000000E+00 0.  1.
       12    1    4    4    0    0  0.54629605154E+01 -0.13269874108E+03 -0.12115681513E+03  0.17977144844E+03  0.00000000000E+00 0. -1.
       -5    1    5    5    0  503 -0.37740670135E+02 -0.62735513365E+01  0.53163717867E+02  0.65667240890E+02  0.47000000000E+01 0.  1.
        3    1    6    6  502    0  0.67023599835E+01  0.15482541221E+03  0.12164201328E+03  0.19700916043E+03  0.00000000000E+00 0. -1.
       -4    1    6    6    0  502  0.43133154243E+02  0.35475254885E+02  0.69005206886E+02  0.88773201370E+02  0.00000000000E+00 0.  1.
</event>
<event>
12   0  0.1523332E-01  0.1782360E+03  0.7957747E-01  0.1175080E+00
       21   -1    0    0  501  503  0.00000000000E+00  0.00000000000E+00  0.19268248199E+03  0.19268248199E+03  0.00000000000E+00 0. -1.
       21   -1    0    0  503  504  0.00000000000E+00  0.00000000000E+00 -0.16633397800E+03  0.16633397800E+03  0.00000000000E+00 0. -1.
        6    2    1    2  501    0  0.30684369789E+02  0.30717693360E+02  0.41184692334E+02  0.18016406030E+03  0.16993470072E+03 0.  0.
       24    2    3    3    0    0 -0.44874986672E+02 -0.17763844601E+01  0.17697870074E+02  0.94497250733E+02  0.81237896455E+02 0.  0.
       -6    2    1    2    0  504 -0.30684369789E+02 -0.30717693360E+02 -0.14836188343E+02  0.17885239968E+03  0.17286688854E+03 0.  0.
      -24    2    5    5    0    0 -0.83239957240E+02 -0.51984184303E+01  0.26094258906E+01  0.11769880109E+03  0.83007738422E+02 0.  0.
        5    1    3    3  501    0  0.75559356461E+02  0.32494077820E+02  0.23486822260E+02  0.85666809571E+02  0.47000000000E+01 0. -1.
      -11    1    4    4    0    0 -0.45932166844E+02 -0.32711428763E+02  0.26515494677E+02  0.62312703205E+02  0.00000000000E+00 0.  1.
       12    1    4    4    0    0  0.10571801725E+01  0.30935044303E+02 -0.88176246024E+01  0.32184547528E+02  0.00000000000E+00 0. -1.
       -5    1    5    5    0  504  0.52555587451E+02 -0.25519274930E+02 -0.17445614233E+02  0.61153598596E+02  0.47000000000E+01 0.  1.
        3    1    6    6  502    0 -0.11216091702E+02 -0.31694139731E+02  0.19850573867E+02  0.39043110650E+02  0.00000000000E+00 0. -1.
       -4    1    6    6    0  502 -0.72023865538E+02  0.26495721301E+02 -0.17241147976E+02  0.78655690435E+02  0.00000000000E+00 0.  1.
</event>
<event>
12   0  0.1523332E-01  0.2048675E+03  0.7957747E-01  0.1152077E+00
       21   -1    0    0  504  503  0.00000000000E+00  0.00000000000E+00  0.35854762123E+03  0.35854762123E+03  0.00000000000E+00 0. -1.
       21   -1    0    0  501  504  0.00000000000E+00  0.00000000000E+00 -0.12612715224E+03  0.12612715224E+03  0.00000000000E+00 0. -1.
        6    2    1    2  501    0 -0.46322553259E+02 -0.50399760940E+02  0.24774653799E+02  0.20636002225E+03  0.19309262147E+03 0.  0.
       24    2    3    3    0    0 -0.84789590252E+02 -0.42200575634E+01 -0.33904197733E+02  0.12223169434E+03  0.81141906415E+02 0.  0.
       -6    2    1    2    0  503  0.46322553259E+02  0.50399760940E+02  0.20764581519E+03  0.27831475123E+03  0.17221034039E+03 0.  0.
      -24    2    5    5    0    0 -0.15618981084E+02  0.62681657925E+01  0.18103974071E+03  0.19760338544E+03  0.77385190770E+02 0.  0.
        5    1    3    3  501    0  0.38467036994E+02 -0.46179703376E+02  0.58678851532E+02  0.84128327905E+02  0.47000000000E+01 0. -1.
      -13    1    4    4    0    0 -0.89757953928E+02 -0.11499847731E+02 -0.34820953690E+01  0.90558609637E+02  0.00000000000E+00 0.  1.
       14    1    4    4    0    0  0.49683636753E+01  0.72797901672E+01 -0.30422102364E+02  0.31673084705E+02  0.00000000000E+00 0. -1.
       -5    1    5    5    0  503  0.61941534343E+02  0.44131595147E+02  0.26606074487E+02  0.80711365783E+02  0.47000000000E+01 0.  1.
        3    1    6    6  502    0  0.18767890592E+02  0.20441587460E+02  0.13780756744E+03  0.14057388754E+03  0.00000000000E+00 0. -1.
       -4    1    6    6    0  502 -0.34386871676E+02 -0.14173421667E+02  0.43232173271E+02  0.57029497903E+02  0.00000000000E+00 0.  1.
</event>
<event>
12   0  0.1523332E-01  0.1864222E+03  0.7957747E-01  0.1167562E+00
       21   -1    0    0  501  503  0.00000000000E+00  0.00000000000E+00  0.15142269354E+03  0.15142269354E+03  0.00000000000E+00 0. -1.
       21   -1    0    0  503  504  0.00000000000E+00  0.00000000000E+00 -0.24082979565E+03  0.24082979565E+03  0.00000000000E+00 0. -1.
        6    2    1    2  501    0  0.26558115374E+02  0.58972020111E+02  0.14708638601E+01  0.18485900826E+03  0.17316944547E+03 0.  0.
       24    2    3    3    0    0 -0.51686241363E+02  0.34958940798E+02  0.14804536894E+02  0.10180069034E+03  0.79060806678E+02 0.  0.
       -6    2    1    2    0  504 -0.26558115374E+02 -0.58972020111E+02 -0.90877965963E+02  0.20739348094E+03  0.17484341163E+03 0.  0.
      -24    2    5    5    0    0  0.18091111769E+01 -0.97922411117E+02 -0.97382112418E+02  0.15854446434E+03  0.77852423666E+02 0.  0.
        5    1    3    3  501    0  0.78244356736E+02  0.24013079313E+02 -0.13333673033E+02  0.83058317920E+02  0.47000000000E+01 0. -1.
      -13    1    4    4    0    0  0.17782732060E+01  0.96913086100E+01 -0.27421149554E+02  0.29137658812E+02  0.00000000000E+00 0.  1.
       14    1    4    4    0    0 -0.53464514569E+02  0.25267632188E+02  0.42225686448E+02  0.72663031525E+02  0.00000000000E+00 0. -1.
       -5    1    5    5    0  504 -0.28367226550E+02  0.38950391006E+02  0.65041464546E+01  0.48849016600E+02  0.47000000000E+01 0.  1.
        3    1    6    6  502    0  0.20596349457E+02 -0.42228325353E+01 -0.44754681362E+02  0.49447178174E+02  0.00000000000E+00 0. -1.
       -4    1    6    6    0  502 -0.18787238280E+02 -0.93699578582E+02 -0.52627431056E+02  0.10909728616E+03  0.00000000000E+00 0.  1.
</event>
<event>
12   0  0.1523332E-01  0.1842549E+03  0.7957747E-01  0.1169511E+00
       21   -1    0    0  504  503  0.00000000000E+00  0.00000000000E+00  0.12282126574E+03  0.12282126574E+03  0.00000000000E+00 0. -1.
       21   -1    0    0  501  504  0.00000000000E+00  0.00000000000E+00 -0.28188099977E+03  0.28188099977E+03  0.00000000000E+00 0. -1.
        6    2    1    2  501    0  0.56552376923E+02 -0.17488466444E+02 -0.11144431917E+03  0.21439434881E+03  0.17332363581E+03 0.  0.
       24    2    3    3    0    0  0.35140516042E+02 -0.70407758981E+02 -0.11005627522E+03  0.15709743811E+03  0.79844304448E+02 0.  0.
       -6    2    1    2    0  503 -0.56552376923E+02  0.17488466444E+02 -0.47615414865E+02  0.19030791671E+03  0.17448741397E+03 0.  0.
      -24    2    5    5    0    0  0.18758245544E+02 -0.33362338050E+02 -0.46252779044E+02  0.99305493934E+02  0.79103376541E+02 0.  0.
        5    1    3    3  501    0  0.21411860880E+02  0.52919292537E+02 -0.13880439407E+01  0.57296910693E+02  0.47000000000E+01 0. -1.
      -11    1    4    4    0    0  0.49284891213E+02 -0.32790462758E+02 -0.99113536569E+02  0.11544569321E+03  0.00000000000E+00 0.  1.
       12    1    4    4    0    0 -0.14144375170E+02 -0.37617296222E+02 -0.10942738655E+02  0.41651744901E+02  0.00000000000E+00 0. -1.
       -5    1    5    5    0  503 -0.75310622467E+02  0.50850804493E+02 -0.13626358216E+01  0.91002422772E+02  0.47000000000E+01 0.  1.
        1    1    6    6  502    0 -0.25021757325E+02 -0.22284547395E+02 -0.42314765167E+02  0.53974334117E+02  0.00000000000E+00 0. -1.
       -2    1    6    6    0  502  0.43780002870E+02 -0.11077790655E+02 -0.39380138769E+01  0.45331159817E+02  0.00000000000E+00 0.  1.
</event>
<event>
12   0  0.1523332E-01  0.1860092E+03  0.7957747E-01  0.1167931E+00
       21   -1    0    0  501  503  0.00000000000E+00  0.00000000000E+00  0.10627813084E+04  0.10627813084E+04  0.00000000000E+00 0. -1.
       21   -1    0    0  503  504  0.00000000000E+00  0.00000000000E+00 -0.35741192545E+02  0.35741192545E+02  0.00000000000E+00 0. -1.
        6    2    1    2  501    0 -0.68576727247E+02 -0.54098958339E+01  0.67877669242E+03  0.70380197325E+03  0.17282182990E+03 0.  0.
       24    2    3    3    0    0 -0.50976896019E+01  0.49277178554E+02  0.45278032695E+03  0.46272789433E+03  0.81565022822E+02 0.  0.
       -6    2    1    2    0  504  0.68576727247E+02  0.54098958339E+01  0.34826342345E+03  0.39472052771E+03  0.17258287397E+03 0.  0.
      -24    2    5    5    0    0  0.32520453190E+02 -0.16108396690E+02  0.34097446046E+03  0.35184500097E+03  0.78830588597E+02 0.  0.
        5    1    3    3  501    0 -0.63479037645E+02 -0.54687074388E+02  0.22599636547E+03  0.24107407892E+03  0.47000000000E+01 0. -1.
        4    1    4    4  502    0 -0.31105543272E+02 -0.59834291554E+01  0.10680509838E+03  0.11140325528E+03  0.00000000000E+00 0. -1.
       -3    1    4    4    0  502  0.26007853670E+02  0.55260607709E+02  0.34597522858E+03  0.35132463905E+03  0.00000000000E+00 0.  1.
       -5    1    5    5    0  504  0.36056274058E+02  0.21518292524E+02  0.72889629929E+01  0.42875526744E+02  0.47000000000E+01 0.  1.
       11    1    6    6    0    0  0.51308573466E+02 -0.28665212336E+02  0.18153356237E+03  0.19081063486E+03  0.00000000000E+00 0. -1.
      -12    1    6    6    0    0 -0.18788120277E+02  0.12556815646E+02  0.15944089809E+03  0.16103436610E+03  0.00000000000E+00 0.  1.
</event>
<event>
12   0  0.1523332E-01  0.1984126E+03  0.7957747E-01  0.1157285E+00
       -2   -1    0    0    0  501  0.00000000000E+00  0.00000000000E+00  0.63161325453E+02  0.63161325453E+02  0.00000000000E+00 0.  1.
        2   -1    0    0  502    0  0.00000000000E+00  0.00000000000E+00 -0.69422677736E+03  0.69422677736E+03  0.00000000000E+00 0. -1.
        6    2    1    2  502    0 -0.63163826117E+02 -0.71586483078E+02 -0.43688699562E+03  0.47991764189E+03  0.17417348412E+03 0.  0.
       24    2    3    3    0    0 -0.10104202157E+03 -0.81339866754E+02 -0.38876753938E+03  0.41772875018E+03  0.80817355847E+02 0.  0.
       -6    2    1    2    0  501  0.63163826117E+02  0.71586483078E+02 -0.19417845629E+03  0.27747046092E+03  0.17369597090E+03 0.  0.
      -24    2    5    5    0    0  0.83597427645E+02  0.90425406072E+01 -0.76775816856E+02  0.14280514780E+03  0.86188669413E+02 0.  0.
        5    1    3    3  502    0  0.37878195453E+02  0.97533836758E+01 -0.48119456240E+02  0.62188891715E+02  0.47000000000E+01 0. -1.
      -11    1    4    4    0    0 -0.28874703387E+02 -0.54718617938E+02 -0.89977625461E+02  0.10919637690E+03  0.00000000000E+00 0.  1.
       12    1    4    4    0    0 -0.72167318182E+02 -0.26621248816E+02 -0.29878991391E+03  0.30853237328E+03  0.00000000000E+00 0. -1.
       -5    1    5    5    0  501 -0.20433601528E+02  0.62543942471E+02 -0.11740263943E+03  0.13466531312E+03  0.47000000000E+01 0.  1.
        1    1    6    6  503    0  0.46742463118E+01  0.36283022681E+02 -0.28384236892E+02  0.46303036805E+02  0.00000000000E+00 0. -1.
       -2    1    6    6    0  503  0.78923181333E+02 -0.27240482073E+02 -0.48391579964E+02  0.96502110996E+02  0.00000000000E+00 0.  1.
</event>
<event>
12   0  0.1523332E-01  0.2115382E+03  0.7957747E-01  0.1146911E+00
       21   -1    0    0  504  503  0.00000000000E+00  0.00000000000E+00  0.10127169699E+03  0.10127169699E+03  0.00000000000E+00 0.  1.
       21   -1    0    0  501  504  0.00000000000E+00  0.00000000000E+00 -0.52895965486E+03  0.52895965486E+03  0.00000000000E+00 0. -1.
        6    2    1    2  501    0 -0.88183994071E+02  0.83369761058E+02 -0.85174686605E+02  0.22804197545E+03  0.17326708129E+03 0.  0.
       24    2    3    3    0    0 -0.12388394378E+03  0.64324436152E+02 -0.37443210524E+02  0.16529171953E+03  0.80215297274E+02 0.  0.
       -6    2    1    2    0  503  0.88183994071E+02 -0.83369761058E+02 -0.34251327127E+03  0.40218937640E+03  0.17237754966E+03 0.  0.
      -24    2    5    5    0    0  0.18952400206E+02 -0.79077356837E+02 -0.29921462455E+03  0.32028515715E+03  0.80254398678E+02 0.  0.
        5    1    3    3  501    0  0.35699949708E+02  0.19045324906E+02 -0.47731476081E+02  0.62750255926E+02  0.47000000000E+01 0. -1.
      -13    1    4    4    0    0 -0.12031661780E+03  0.51216628565E+02 -0.58420948833E+01  0.13089446754E+03  0.00000000000E+00 0.  1.
       14    1    4    4    0    0 -0.35673259804E+01  0.13107807587E+02 -0.31601115641E+02  0.34397251985E+02  0.00000000000E+00 0. -1.
       -5    1    5    5    0  503  0.69231593866E+02 -0.42924042211E+01 -0.43298646712E+02  0.81904219246E+02  0.47000000000E+01 0.  1.
        1    1    6    6  502    0  0.46664952702E+02 -0.65459453722E+02 -0.17998647249E+03  0.19712353531E+03  0.00000000000E+00 0. -1.
       -2    1    6    6    0  502 -0.27712552497E+02 -0.13617903115E+02 -0.11922815206E+03  0.12316162184E+03  0.00000000000E+00 0.  1.
</event>
<event>
12   0  0.1523332E-01  0.2584784E+03  0.7957747E-01  0.1115622E+00
       21   -1    0    0  504  503  0.00000000000E+00  0.00000000000E+00  0.43167022438E+03  0.43167022438E+03  0.00000000000E+00 0.  1.
       21   -1    0    0  501  504  0.00000000000E+00  0.00000000000E+00 -0.22205668515E+03  0.22205668515E+03  0.00000000000E+00 0.  1.
        6    2    1    2  501    0 -0.18689477053E+03  0.45266421403E+02 -0.75822715960E+02  0.26864904410E+03  0.17159405724E+03 0.  0.
       24    2    3    3    0    0 -0.13347203935E+03 -0.23746597845E+02 -0.84874402870E+02  0.18078091524E+03  0.84257871181E+02 0.  0.
       -6    2    1    2    0  503  0.18689477053E+03 -0.45266421403E+02  0.28543625519E+03  0.38507786544E+03  0.17272059088E+03 0.  0.
      -24    2    5    5    0    0  0.10771759026E+03 -0.92241509832E+01  0.67005465885E+02  0.14991372946E+03  0.79348784553E+02 0.  0.
        5    1    3    3  501    0 -0.53422731179E+02  0.69013019248E+02  0.90516869104E+01  0.87868128854E+02  0.47000000000E+01 0. -1.
        2    1    4    4  502    0 -0.54723617880E+02 -0.43514491149E+02 -0.10549532852E+02  0.70706986482E+02  0.00000000000E+00 0. -1.
       -1    1    4    4    0  502 -0.78748421471E+02  0.19767893305E+02 -0.74324870019E+02  0.11007392876E+03  0.00000000000E+00 0.  1.
       -5    1    5    5    0  503  0.79177180268E+02 -0.36042270420E+02  0.21843078930E+03  0.23516413597E+03  0.47000000000E+01 0.  1.
       13    1    6    6    0    0  0.61573314647E+02  0.33928227392E+02  0.28050348633E+02  0.75691609502E+02  0.00000000000E+00 0. -1.
      -14    1    6    6    0    0  0.46144275615E+02 -0.43152378375E+02  0.38955117252E+02  0.74222119962E+02  0.00000000000E+00 0.  1.
</event>
<event>
12   0  0.1523332E-01  0.1777583E+03  0.7957747E-01  0.1175532E+00
       21   -1    0    0  501  503  0.00000000000E+00  0.00000000000E+00  0.70763682019E+02  0.70763682019E+02  0.00000000000E+00 0.  1.
       21   -1    0    0  503  504  0.00000000000E+00  0.00000000000E+00 -0.54207137041E+03  0.54207137041E+03  0.00000000000E+00 0.  1.
        6    2    1    2  501    0 -0.13524939549E+02 -0.32027821395E+02 -0.10552633631E+03  0.20614842070E+03  0.17364520831E+03 0.  0.
       24    2    3    3    0    0 -0.45455320037E+02  0.12884572066E+02 -0.12617617853E+03  0.14711302227E+03  0.59072963155E+02 0.  0.
       -6    2    1    2    0  504  0.13524939549E+02  0.32027821395E+02 -0.36578135208E+03  0.40668663172E+03  0.17432530958E+03 0.  0.
      -24    2    5    5    0    0 -0.80958588744E+01  0.79288933419E+02 -0.17143259656E+03  0.20545392959E+03  0.80435714258E+02 0.  0.
        5    1    3    3  501    0  0.31930380489E+02 -0.44912393461E+02  0.20649842221E+02  0.59035398434E+02  0.47000000000E+01 0. -1.
        4    1    4    4  502    0 -0.29330189701E+02 -0.21620842050E+02 -0.49139043470E+02  0.61174883997E+02  0.00000000000E+00 0. -1.
       -3    1    4    4    0  502 -0.16125130336E+02  0.34505414116E+02 -0.77037135057E+02  0.85938138270E+02  0.00000000000E+00 0.  1.
       -5    1    5    5    0  504  0.21620798423E+02 -0.47261112024E+02 -0.19434875552E+03  0.20123270213E+03  0.47000000000E+01 0.  1.
       13    1    6    6    0    0  0.28493785238E+02  0.69811335886E+02 -0.11174694213E+03  0.13480688962E+03  0.00000000000E+00 0. -1.
      -14    1    6    6    0    0 -0.36589644112E+02  0.94775975330E+01 -0.59685654433E+02  0.70647039968E+02  0.00000000000E+00 0.  1.
</event>
<event>
12   0  0.1523332E-01  0.3587691E+03  0.7957747E-01  0.1067958E+00
       21   -1    0    0  501  503  0.00000000000E+00  0.00000000000E+00  0.11183647593E+03  0.11183647593E+03  0.00000000000E+00 0. -1.
       21   -1    0    0  503  504  0.00000000000E+00  0.00000000000E+00 -0.14531121810E+04  0.14531121810E+04  0.00000000000E+00 0.  1.
        6    2    1    2  501    0 -0.29773403325E+03 -0.98729725857E+02 -0.31122142104E+03  0.47420252519E+03  0.17209343004E+03 0.  0.
       24    2    3    3    0    0 -0.91096053965E+02  0.37625413528E+01 -0.14747705844E+03  0.19129224683E+03  0.80812085522E+02 0.  0.
       -6    2    1    2    0  504  0.29773403325E+03  0.98729725857E+02 -0.10300542840E+04  0.10907461317E+04  0.17413265778E+03 0.  0.
      -24    2    5    5    0    0  0.14431748282E+03 -0.14418666500E+02 -0.54870145398E+03  0.57299924990E+03  0.78863305791E+02 0.  0.
        5    1    3    3  501    0 -0.20663797928E+03 -0.10249226721E+03 -0.16374436260E+03  0.28291027836E+03  0.47000000000E+01 0. -1.
      -11    1    4    4    0    0 -0.67232300014E+02 -0.33422903277E+02 -0.11093694335E+03  0.13395625416E+03  0.00000000000E+00 0.  1.
       12    1    4    4    0    0 -0.23863753952E+02  0.37185444630E+02 -0.36540115093E+02  0.57335992675E+02  0.00000000000E+00 0. -1.
       -5    1    5    5    0  504  0.15341655042E+03  0.11314839236E+03 -0.48135283001E+03  0.51774688178E+03  0.47000000000E+01 0.  1.
        3    1    6    6  502    0  0.17154114283E+02 -0.31216495753E+02 -0.15008328169E+03  0.15425214646E+03  0.00000000000E+00 0. -1.
       -4    1    6    6    0  502  0.12716336854E+03  0.16797829253E+02 -0.39861817228E+03  0.41874710344E+03  0.00000000000E+00 0.  1.
</event>
<event>
12   0  0.1523332E-01  0.1961425E+03  0.7957747E-01  0.1159169E+00
        2   -1    0    0  502    0  0.00000000000E+00  0.00000000000E+00  0.59849290810E+03  0.59849290810E+03  0.00000000000E+00 0.  1.
       -2   -1    0    0    0  501  0.00000000000E+00  0.00000000000E+00 -0.66494937521E+02  0.66494937521E+02  0.00000000000E+00 0. -1.
        6    2    1    2  502    0 -0.74988559756E+02  0.51944929203E+02  0.32769369919E+03  0.38232009511E+03  0.17453920727E+03 0.  0.
       24    2    3    3    0    0  0.20706168100E+02  0.16431822885E+02  0.20725224781E+03  0.22437423455E+03  0.81801911379E+02 0.  0.
       -6    2    1    2    0  501  0.74988559756E+02 -0.51944929203E+02  0.20430427140E+03  0.28266775051E+03  0.17274044722E+03 0.  0.
      -24    2    5    5    0    0 -0.24488376339E+02 -0.12601855446E+02  0.80860395885E+02  0.11925410767E+03  0.83214489340E+02 0.  0.
        5    1    3    3  502    0 -0.95694727856E+02  0.35513106319E+02  0.12044145138E+03  0.15794586057E+03  0.47000000000E+01 0. -1.
      -13    1    4    4    0    0 -0.30430217426E+02 -0.15613659019E+01  0.56850999020E+02  0.64501721571E+02  0.00000000000E+00 0.  1.
       14    1    4    4    0    0  0.51136385526E+02  0.17993188787E+02  0.15040124879E+03  0.15987251297E+03  0.00000000000E+00 0. -1.
       -5    1    5    5    0  501  0.99476936095E+02 -0.39343073757E+02  0.12344387551E+03  0.16341364285E+03  0.47000000000E+01 0.  1.
        3    1    6    6  503    0 -0.98869644897E+01 -0.38354668764E+02  0.77257834030E+01  0.40354930454E+02  0.00000000000E+00 0. -1.
       -4    1    6    6    0  503 -0.14601411850E+02  0.25752813317E+02  0.73134612482E+02  0.78899177212E+02  0.00000000000E+00 0.  1.
</event>
<event>
12   0  0.1523332E-01  0.1879908E+03  0.7957747E-01  0.1166170E+00
       21   -1    0    0  501  503  0.00000000000E+00  0.00000000000E+00  0.11361061180E+04  0.11361061180E+04  0.00000000000E+00 0.  1.
       21   -1    0    0  503  504  0.00000000000E+00  0.00000000000E+00 -0.32794237985E+02  0.32794237985E+02  0.00000000000E+00 0.  1.
        6    2    1    2  501    0  0.70339179549E+02  0.18506833474E+02  0.69049770459E+03  0.71529690092E+03  0.17196648902E+03 0.  0.
       24    2    3    3    0    0 -0.46324197805E+01  0.59690396195E+02  0.33996427750E+03  0.35444707058E+03  0.80452552199E+02 0.  0.
       -6    2    1    2    0  504 -0.70339179549E+02 -0.18506833474E+02  0.41281417546E+03  0.45360345511E+03  0.17335065030E+03 0.  0.
      -24    2    5    5    0    0 -0.20666375871E+01 -0.38703054322E+02  0.98547050045E+02  0.13133812430E+03  0.77691598116E+02 0.  0.
        5    1    3    3  501    0  0.74971599330E+02 -0.41183562721E+02  0.35053342710E+03  0.36084983034E+03  0.47000000000E+01 0. -1.
        2    1    4    4  502    0 -0.20551081216E+02 -0.12237914731E+02  0.52477257154E+02  0.57671275471E+02  0.00000000000E+00 0. -1.
       -1    1    4    4    0  502  0.15918661436E+02  0.71928310926E+02  0.28748702035E+03  0.29677579511E+03  0.00000000000E+00 0.  1.
       -5    1    5    5    0  504 -0.68272541962E+02  0.20196220847E+02  0.31426712542E+03  0.32226533081E+03  0.47000000000E+01 0.  1.
       11    1    6    6    0    0  0.20574505888E+01  0.21890351723E+02  0.10472374276E+02  0.24353464321E+02  0.00000000000E+00 0. -1.
      -12    1    6    6    0    0 -0.41240881759E+01 -0.60593406045E+02  0.88074675769E+02  0.10698465998E+03  0.00000000000E+00 0.  1.
</event>
<event>
12   0  0.1523332E-01  0.3023105E+03  0.7957747E-01  0.1092330E+00
       21   -1    0    0  504  503  0.00000000000E+00  0.00000000000E+00  0.81990098404E+03  0.81990098404E+03  0.00000000000E+00 0.  1.
       21   -1    0    0  501  504  0.00000000000E+00  0.00000000000E+00 -0.11394713232E+03  0.11394713232E+03  0.00000000000E+00 0. -1.
        6    2    1    2  501    0  0.83246717187E+02 -0.23326550297E+03  0.42688781452E+03  0.52309164744E+03  0.17334605459E+03 0.  0.
       24    2    3    3    0    0  0.91831285994E+01 -0.60024388219E+02  0.22581037028E+03  0.24749751184E+03  0.81101405731E+02 0.  0.
       -6    2    1    2    0  503 -0.83246717187E+02  0.23326550297E+03  0.27906603720E+03  0.41075646892E+03  0.17175625999E+03 0.  0.
      -24    2    5    5    0    0 -0.43748259047E+02  0.20830961354E+03  0.14713792801E+03  0.27072061421E+03  0.79581881324E+02 0.  0.
        5    1    3    3  501    0  0.74063588588E+02 -0.17324111475E+03  0.20107744424E+03  0.27559413560E+03  0.47000000000E+01 0. -1.
      -13    1    4    4    0    0 -0.40469724299E+01 -0.76314658521E+02  0.14381323311E+03  0.16285745641E+03  0.00000000000E+00 0.  1.
       14    1    4    4    0    0  0.13230101029E+02  0.16290270303E+02  0.81997137170E+02  0.84640055434E+02  0.00000000000E+00 0. -1.
       -5    1    5    5    0  503 -0.39498458140E+02  0.24955889430E+02  0.13192810918E+03  0.14003585471E+03  0.47000000000E+01 0.  1.
        3    1    6    6  502    0 -0.38969115656E+02  0.15859414899E+03  0.14853519479E+03  0.22075642722E+03  0.00000000000E+00 0. -1.
       -4    1    6    6    0  502 -0.47791433917E+01  0.49715464546E+02 -0.13972667757E+01  0.49964186985E+02  0.00000000000E+00 0.  1.
</event>
<event>
12   0  0.1523332E-01  0.3773843E+03  0.7957747E-01  0.1060964E+00
       21   -1    0    0  501  503  0.00000000000E+00  0.00000000000E+00  0.36242584874E+03  0.36242584874E+03  0.00000000000E+00 0.  1.
       21   -1    0    0  503  504  0.00000000000E+00  0.00000000000E+00 -0.68094764854E+03  0.68094764854E+03  0.00000000000E+00 0. -1.
        6    2    1    2  501    0  0.10437820314E+03  0.31765816204E+03  0.18051965714E+03  0.41770485350E+03  0.17346031483E+03 0.  0.
       24    2    3    3    0    0  0.10831704729E+03  0.16876012881E+03  0.15474552736E+03  0.26646816959E+03  0.82743841807E+02 0.  0.
       -6    2    1    2    0  504 -0.10437820314E+03 -0.31765816204E+03 -0.49904145693E+03  0.62566864378E+03  0.17497816685E+03 0.  0.
      -24    2    5    5    0    0 -0.10975679282E+03 -0.28029203811E+03 -0.49844560603E+03  0.58762128535E+03  0.78997295142E+02 0.  0.
        5    1    3    3  501    0 -0.39388441534E+01  0.14889803323E+03  0.25774129775E+02  0.15123668391E+03  0.47000000000E+01 0. -1.
      -11    1    4    4    0    0  0.97091383489E+02  0.93366575119E+02  0.67668665842E+02  0.15074184036E+03  0.00000000000E+00 0.  1.
       12    1    4    4    0    0  0.11225663802E+02  0.75393553690E+02  0.87076861522E+02  0.11572632924E+03  0.00000000000E+00 0. -1.
       -5    1    5    5    0  504  0.53785896799E+01 -0.37366123935E+02 -0.59585090451E+00  0.38047358426E+02  0.47000000000E+01 0.  1.
        3    1    6    6  502    0 -0.86627494141E+02 -0.24732286751E+03 -0.47064925657E+03  0.53868696498E+03  0.00000000000E+00 0. -1.
       -4    1    6    6    0  502 -0.23129298676E+02 -0.32969170594E+02 -0.27796349458E+02  0.48934320371E+02  0.00000000000E+00 0.  1.
</event>
<event>
12   0  0.1523332E-01  0.2023071E+03  0.7957747E-01  0.1154117E+00
       -2   -1    0    0    0  501  0.00000000000E+00  0.00000000000E+00  0.44919710758E+02  0.44919710758E+02  0.00000000000E+00 0. -1.
        2   -1    0    0  502    0  0.00000000000E+00  0.00000000000E+00 -0.93742150639E+03  0.93742150639E+03  0.00000000000E+00 0.  1.
        6    2    1    2  502    0 -0.10085253181E+03 -0.13128026533E+02 -0.52522885917E+03  0.56231392594E+03  0.17317048982E+03 0.  0.
       24    2    3    3    0    0 -0.46362775651E+02  0.57279765590E+02 -0.33118197841E+03  0.34876610307E+03  0.80782506254E+02 0.  0.
       -6    2    1    2    0  501  0.10085253181E+03  0.13128026533E+02 -0.36727293646E+03  0.42002729121E+03  0.17660673048E+03 0.  0.
      -24    2    5    5    0    0 -0.19622384226E+02  0.86062534458E+01 -0.13529778394E+03  0.15855221934E+03  0.79838652013E+02 0.  0.
        5    1    3    3  502    0 -0.54489756160E+02 -0.70407792123E+02 -0.19404688076E+03  0.21354782286E+03  0.47000000000E+01 0. -1.
        2    1    4    4  503    0 -0.16835005387E+01  0.26194760350E+02 -0.24783377256E+03  0.24921993995E+03  0.00000000000E+00 0. -1.
       -1    1    4    4    0  503 -0.44679275112E+02  0.31085005240E+02 -0.83348205848E+02  0.99546163127E+02  0.00000000000E+00 0.  1.
       -5    1    5    5    0  501  0.12047491604E+03  0.45217730876E+01 -0.23197515252E+03  0.26147507188E+03  0.47000000000E+01 0.  1.
       13    1    6    6    0    0 -0.92182054830E+01 -0.25748562303E+02 -0.11307259573E+03  0.11633303778E+03  0.00000000000E+00 0. -1.
      -14    1    6    6    0    0 -0.10404178743E+02  0.34354815749E+02 -0.22225188212E+02  0.42219181559E+02  0.00000000000E+00 0.  1.
</event>
<event>
12   0  0.1523332E-01  0.1883141E+03  0.7957747E-01  0.1165885E+00
       21   -1    0    0  504  503  0.00000000000E+00  0.00000000000E+00  0.25735559077E+03  0.25735559077E+03  0.00000000000E+00 0.  1.
       21   -1    0    0  501  504  0.00000000000E+00  0.00000000000E+00 -0.18587682518E+03  0.18587682518E+03  0.00000000000E+00 0.  1.
        6    2    1    2  501    0  0.11207020429E+02 -0.30326029616E+02 -0.86327539599E+02  0.20715849954E+03  0.18551801653E+03 0.  0.
       24    2    3    3    0    0 -0.11535462849E+02  0.46332680716E+02 -0.83889200996E+02  0.12702227857E+03  0.82568014414E+02 0.  0.
       -6    2    1    2    0  503 -0.11207020429E+02  0.30326029616E+02  0.15780630519E+03  0.23607391642E+03  0.17257693553E+03 0.  0.
      -24    2    5    5    0    0  0.33196561998E+02  0.69635906242E+02  0.12744010099E+03  0.16928214379E+03  0.80400831464E+02 0.  0.
        5    1    3    3  501    0  0.22742483278E+02 -0.76658710332E+02 -0.24383386038E+01  0.80136220965E+02  0.47000000000E+01 0. -1.
      -13    1    4    4    0    0 -0.23667545294E+02  0.33445348705E+02  0.31936756744E+00  0.40973723847E+02  0.00000000000E+00 0.  1.
       14    1    4    4    0    0  0.12132082445E+02  0.12887332011E+02 -0.84208568563E+02  0.86048554725E+02  0.00000000000E+00 0. -1.
       -5    1    5    5    0  503 -0.44403582428E+02 -0.39309876626E+02  0.30366204205E+02  0.66791772627E+02  0.47000000000E+01 0.  1.
        3    1    6    6  502    0  0.44303460475E+02  0.90956601623E+01  0.30847921963E+02  0.54745976412E+02  0.00000000000E+00 0. -1.
       -4    1    6    6    0  502 -0.11106898477E+02  0.60540246080E+02  0.96592179026E+02  0.11453616738E+03  0.00000000000E+00 0.  1.
</event>
<event>
12   0  0.1523332E-01  0.1889251E+03  0.7957747E-01  0.1165348E+00
       21   -1    0    0  501  503  0.00000000000E+00  0.00000000000E+00  0.25332504437E+02  0.25332504437E+02  0.00000000000E+00 0. -1.
       21   -1    0    0  503  504  0.00000000000E+00  0.00000000000E+00 -0.14190915650E+04  0.14190915650E+04  0.00000000000E+00 0.  1.
        6    2    1    2  501    0  0.57806190415E+02  0.52768158749E+02 -0.62867894593E+03  0.65645252710E+03  0.17194961195E+03 0.  0.
       24    2    3    3    0    0 -0.10381129511E+02  0.31907406154E+02 -0.51411631418E+03  0.52142894326E+03  0.80291394013E+02 0.  0.
       -6    2    1    2    0  504 -0.57806190415E+02 -0.52768158749E+02 -0.76508011461E+03  0.78797154232E+03  0.17153872886E+03 0.  0.
      -24    2    5    5    0    0 -0.10143649150E+03 -0.58782489400E+02 -0.53126663151E+03  0.54999967375E+03  0.80688688850E+02 0.  0.
        5    1    3    3  501    0  0.68187319926E+02  0.20860752595E+02 -0.11456263175E+03  0.13502358383E+03  0.47000000000E+01 0. -1.
      -11    1    4    4    0    0 -0.91817204441E+01  0.13042328285E+02 -0.14812175615E+02  0.21767105086E+02  0.00000000000E+00 0.  1.
       12    1    4    4    0    0 -0.11994090668E+01  0.18865077869E+02 -0.49930413856E+03  0.49966183818E+03  0.00000000000E+00 0. -1.
       -5    1    5    5    0  504  0.43630301083E+02  0.60143306514E+01 -0.23381348311E+03  0.23797186856E+03  0.47000000000E+01 0.  1.
        3    1    6    6  502    0  0.47190123102E+01 -0.32579267810E+02 -0.12982417920E+03  0.13393280133E+03  0.00000000000E+00 0. -1.
       -4    1    6    6    0  502 -0.10615550381E+03 -0.26203221591E+02 -0.40144245231E+03  0.41606687242E+03  0.00000000000E+00 0.  1.
</event>
<event>
12   0  0.1523332E-01  0.1828809E+03  0.7957747E-01  0.1170761E+00
       21   -1    0    0  504  503  0.00000000000E+00  0.00000000000E+00  0.11186302483E+03  0.11186302483E+03  0.00000000000E+00 0. -1.
       21   -1    0    0  501  504  0.00000000000E+00  0.00000000000E+00 -0.48381134256E+03  0.48381134256E+03  0.00000000000E+00 0.  1.
        6    2    1    2  501    0  0.59507243182E+02  0.63377220451E+01 -0.37336630207E+03  0.41574970283E+03  0.17281244508E+03 0.  0.
       24    2    3    3    0    0  0.10885406528E+03 -0.14454231410E+02 -0.26437139448E+03  0.29422030697E+03  0.67935428735E+02 0.  0.
       -6    2    1    2    0  503 -0.59507243182E+02 -0.63377220451E+01  0.14179843382E+01  0.17992466456E+03  0.16967497024E+03 0.  0.
      -24    2    5    5    0    0 -0.43874674878E+02  0.61563093989E+02  0.49105716036E+01  0.11000194882E+03  0.79757842211E+02 0.  0.
        5    1    3    3  501    0 -0.49346822100E+02  0.20791953455E+02 -0.10899490758E+03  0.12152939586E+03  0.47000000000E+01 0. -1.
      -13    1    4    4    0    0  0.49628476636E+02  0.27291948977E+02 -0.11902400270E+03  0.13181255399E+03  0.00000000000E+00 0.  1.
       14    1    4    4    0    0  0.59225588647E+02 -0.41746180387E+02 -0.14534739179E+03  0.16240775297E+03  0.00000000000E+00 0. -1.
       -5    1    5    5    0  503 -0.15632568305E+02 -0.67900816034E+02 -0.34925872654E+01  0.69922715734E+02  0.47000000000E+01 0.  1.
        1    1    6    6  502    0  0.22893882560E+02  0.19210434877E+02 -0.50471166708E+01  0.30309141419E+02  0.00000000000E+00 0. -1.
       -2    1    6    6    0  502 -0.66768557438E+02  0.42352659112E+02  0.99576882744E+01  0.79692807404E+02  0.00000000000E+00 0.  1.
</event>
<event>
12   0  0.1523332E-01  0.2011203E+03  0.7957747E-01  0.1155074E+00
       21   -1    0    0  504  503  0.00000000000E+00  0.00000000000E+00  0.93375758552E+03  0.93375758552E+03  0.00000000000E+00 0.  1.
       21   -1    0    0  501  504  0.00000000000E+00  0.00000000000E+00 -0.75386674867E+02  0.75386674867E+02  0.00000000000E+00 0.  1.
        6    2    1    2  501    0 -0.92841361616E+02  0.42176004680E+02  0.98285681187E+02  0.22290070228E+03  0.17212296230E+03 0.  0.
       24    2    3    3    0    0 -0.53636298879E+02  0.19917682618E+01 -0.12692389750E+01  0.10851065931E+03  0.94298104534E+02 0.  0.
       -6    2    1    2    0  503  0.92841361616E+02 -0.42176004680E+02  0.76008522946E+03  0.78624355811E+03  0.17335236607E+03 0.  0.
      -24    2    5    5    0    0  0.26969077358E+02  0.30058220227E+02  0.18221109980E+03  0.20013986352E+03  0.72278989625E+02 0.  0.
        5    1    3    3  501    0 -0.39205062737E+02  0.40184236418E+02  0.99554920162E+02  0.11439004296E+03  0.47000000000E+01 0. -1.
        2    1    4    4  502    0 -0.31210829065E+02 -0.45279957478E+02  0.73524352753E+01  0.55483769741E+02  0.00000000000E+00 0. -1.
       -1    1    4    4    0  502 -0.22425469815E+02  0.47271725740E+02 -0.86216742502E+01  0.53026889573E+02  0.00000000000E+00 0.  1.
       -5    1    5    5    0  503  0.65872284258E+02 -0.72234224907E+02  0.57787412966E+03  0.58610369459E+03  0.47000000000E+01 0.  1.
       11    1    6    6    0    0 -0.14645877055E+02 -0.37391708204E+01  0.65386160745E+01  0.16469262682E+02  0.00000000000E+00 0. -1.
      -12    1    6    6    0    0  0.41614954413E+02  0.33797391047E+02  0.17567248373E+03  0.18367060084E+03  0.00000000000E+00 0.  1.
</event>
<event>
12   0  0.1523332E-01  0.1868264E+03  0.7957747E-01  0.1167202E+00
       21   -1    0    0  501  503  0.00000000000E+00  0.00000000000E+00  0.38184109696E+02  0.38184109696E+02  0.00000000000E+00 0.  1.
       21   -1    0    0  503  504  0.00000000000E+00  0.00000000000E+00 -0.10149243412E+04  0.10149243412E+04  0.00000000000E+00 0.  1.
        6    2    1    2  501    0  0.72191258550E+02  0.49668805958E+01 -0.65523861242E+03  0.68135286943E+03  0.17224356523E+03 0.  0.
       24    2    3    3    0    0  0.68293012242E+02 -0.50566207070E+02 -0.54836375867E+03  0.56075666504E+03  0.80773440834E+02 0.  0.
       -6    2    1    2    0  504 -0.72191258550E+02 -0.49668805958E+01 -0.32150161905E+03  0.37175558143E+03  0.17205427504E+03 0.  0.
      -24    2    5    5    0    0 -0.19954747833E+02  0.56760022832E+02 -0.18851331583E+03  0.21604160501E+03  0.86699554194E+02 0.  0.
        5    1    3    3  501    0  0.38982463076E+01  0.55533087666E+02 -0.10687485374E+03  0.12059620439E+03  0.47000000000E+01 0. -1.
      -13    1    4    4    0    0  0.13432178398E+02 -0.36693839318E+01 -0.89872236487E+01  0.16572808569E+02  0.00000000000E+00 0.  1.
       14    1    4    4    0    0  0.54860833844E+02 -0.46896823138E+02 -0.53937653502E+03  0.54418385647E+03  0.00000000000E+00 0. -1.
       -5    1    5    5    0  504 -0.52236510716E+02 -0.61726903428E+02 -0.13298830321E+03  0.15571397641E+03  0.47000000000E+01 0.  1.
        3    1    6    6  502    0  0.91376234575E+01 -0.18403316752E+02 -0.17507387096E+02  0.26994199985E+02  0.00000000000E+00 0. -1.
       -4    1    6    6    0  502 -0.29092371291E+02  0.75163339584E+02 -0.17100592874E+03  0.18904740503E+03  0.00000000000E+00 0.  1.
</event>
<event>
12   0  0.1523332E-01  0.2247312E+03  0.7957747E-01  0.1137282E+00
       21   -1    0    0  501  503  0.00000000000E+00  0.00000000000E+00  0.52056407511E+03  0.52056407511E+03  0.00000000000E+00 0.  1.
       21   -1    0    0  503  504  0.00000000000E+00  0.00000000000E+00 -0.10673523122E+03  0.10673523122E+03  0.00000000000E+00 0.  1.
        6    2    1    2  501    0  0.12941718119E+03  0.58500848436E+02  0.30302427458E+03  0.37673641323E+03  0.17301866378E+03 0.  0.
       24    2    3    3    0    0  0.10477602495E+03 -0.18452801904E+02  0.23992454335E+03  0.27410738730E+03  0.79073079938E+02 0.  0.
       -6    2    1    2    0  504 -0.12941718119E+03 -0.58500848436E+02  0.11080456932E+03  0.25056289310E+03  0.17416358621E+03 0.  0.
      -24    2    5    5    0    0 -0.15124544165E+03 -0.11690365135E+02  0.75588039925E+02  0.18787327479E+03  0.81061503475E+02 0.  0.
        5    1    3    3  501    0  0.24641156237E+02  0.76953650340E+02  0.63099731234E+02  0.10262902593E+03  0.47000000000E+01 0. -1.
      -13    1    4    4    0    0  0.31776066048E+02  0.27063071042E+02  0.11574144631E+03  0.12303743569E+03  0.00000000000E+00 0.  1.
       14    1    4    4    0    0  0.72999958905E+02 -0.45515872946E+02  0.12418309704E+03  0.15106995161E+03  0.00000000000E+00 0. -1.
       -5    1    5    5    0  504  0.21828260456E+02 -0.46810483302E+02  0.35216529391E+02  0.62689618310E+02  0.47000000000E+01 0.  1.
        1    1    6    6  502    0 -0.21751399384E+02 -0.10521527428E+02 -0.16246597762E+02  0.29116625035E+02  0.00000000000E+00 0. -1.
       -2    1    6    6    0  502 -0.12949404226E+03 -0.11688377066E+01  0.91834637687E+02  0.15875664976E+03  0.00000000000E+00 0.  1.
</event>
<event>
12   0  0.1523332E-01  0.2257568E+03  0.7957747E-01  0.1136564E+00
       21   -1    0    0  501  503  0.00000000000E+00  0.00000000000E+00  0.40839660944E+03  0.40839660944E+03  0.00000000000E+00 0. -1.
       21   -1    0    0  503  504  0.00000000000E+00  0.00000000000E+00 -0.12828892017E+03  0.12828892017E+03  0.00000000000E+00 0. -1.
        6    2    1    2  501    0 -0.52232897559E+02 -0.13424686126E+03  0.18598356858E+03  0.29249960107E+03  0.17382644649E+03 0.  0.
       24    2    3    3    0    0 -0.24591815105E+01  0.25544486737E+01  0.84530813249E+02  0.11499812848E+03  0.77887986130E+02 0.  0.
       -6    2    1    2    0  504  0.52232897559E+02  0.13424686126E+03  0.94124120699E+02  0.24418592854E+03  0.17325392421E+03 0.  0.
      -24    2    5    5    0    0  0.92009184335E+02  0.12662014329E+03  0.55158608370E+02  0.18778804766E+03  0.87883605287E+02 0.  0.
        5    1    3    3  501    0 -0.49773716049E+02 -0.13680130993E+03  0.10145275533E+03  0.17750147259E+03  0.47000000000E+01 0. -1.
      -13    1    4    4    0    0 -0.28404133715E+02 -0.23739196506E+02  0.60511650363E+02  0.70936620250E+02  0.00000000000E+00 0.  1.
       14    1    4    4    0    0  0.25944952204E+02  0.26293645179E+02  0.24019162887E+02  0.44061508230E+02  0.00000000000E+00 0. -1.
       -5    1    5    5    0  504 -0.39776286776E+02  0.76267179724E+01  0.38965512329E+02  0.56397880880E+02  0.47000000000E+01 0.  1.
        3    1    6    6  502    0  0.78270120797E+02  0.48370936058E+02  0.16924613698E+01  0.92026211973E+02  0.00000000000E+00 0. -1.
       -4    1    6    6    0  502  0.13739063538E+02  0.78249207229E+02  0.53466147000E+02  0.95761835686E+02  0.00000000000E+00 0.  1.
</event>
<event>
12   0  0.1523332E-01  0.1937355E+03  0.7957747E-01  0.1161197E+00
       21   -1    0    0  504  503  0.00000000000E+00  0.00000000000E+00  0.78642277200E+02  0.78642277200E+02  0.00000000000E+00 0.  1.
       21   -1    0    0  501  504  0.00000000000E+00  0.00000000000E+00 -0.63371839588E+03  0.63371839588E+03  0.00000000000E+00 0.  1.
        6    2    1    2  501    0  0.45878700945E+02 -0.74861233707E+02 -0.45489525457E+03  0.49425598743E+03  0.17219241844E+03 0.  0.
       24    2    3    3    0    0  0.63910094406E+02 -0.50432980992E+02 -0.15298701595E+03  0.19078845172E+03  0.79794865268E+02 0.  0.
       -6    2    1    2    0  503 -0.45878700945E+02  0.74861233707E+02 -0.10018086411E+03  0.21810468565E+03  0.17269739099E+03 0.  0.
      -24    2    5    5    0    0 -0.61232837891E+02  0.89013918428E+02 -0.19671453925E+02  0.13479860463E+03  0.78171347698E+02 0.  0.
        5    1    3    3  501    0 -0.18031393461E+02 -0.24428252715E+02 -0.30190823862E+03  0.30346753570E+03  0.47000000000E+01 0. -1.
        4    1    4    4  502    0  0.37257427537E+02  0.10957451562E+02 -0.93506021792E+02  0.10124997661E+03  0.00000000000E+00 0. -1.
       -3    1    4    4    0  502  0.26652666869E+02 -0.61390432554E+02 -0.59480994158E+02  0.89538475118E+02  0.00000000000E+00 0.  1.
       -5    1    5    5    0  503  0.15354136946E+02 -0.14152684721E+02 -0.80509410186E+02  0.83306081019E+02  0.47000000000E+01 0.  1.
       13    1    6    6    0    0 -0.28270279818E+01  0.87778961729E+01  0.24493952346E+02  0.26172452120E+02  0.00000000000E+00 0. -1.
      -14    1    6    6    0    0 -0.58405809909E+02  0.80236022255E+02 -0.44165406270E+02  0.10862615251E+03  0.00000000000E+00 0.  1.
</event>
<event>
12   0  0.1523332E-01  0.2155671E+03  0.7957747E-01  0.1143891E+00
       21   -1    0    0  504  503  0.00000000000E+00  0.00000000000E+00  0.10598453600E+03  0.10598453600E+03  0.00000000000E+00 0. -1.
       21   -1    0    0  501  504  0.00000000000E+00  0.00000000000E+00 -0.46105134016E+03  0.46105134016E+03  0.00000000000E+00 0.  1.
        6    2    1    2  501    0 -0.72783465935E+02 -0.10148651664E+03 -0.10971622828E+03  0.24188187772E+03  0.17570499722E+03 0.  0.
       24    2    3    3    0    0 -0.51416338023E+02 -0.13436682238E+03 -0.11987289075E+03  0.20110300508E+03  0.73313204429E+02 0.  0.
       -6    2    1    2    0  503  0.72783465935E+02  0.10148651664E+03 -0.24535057588E+03  0.32515399844E+03  0.17300656531E+03 0.  0.
      -24    2    5    5    0    0  0.72511807167E+02  0.13132739142E+03 -0.23992995390E+03  0.29446157676E+03  0.81464050333E+02 0.  0.
        5    1    3    3  501    0 -0.21367127913E+02  0.32880305742E+02  0.10156662469E+02  0.40778872636E+02  0.47000000000E+01 0. -1.
      -11    1    4    4    0    0 -0.47844145032E+02 -0.74740908132E+02 -0.10871652883E+03  0.14033726947E+03  0.00000000000E+00 0.  1.
       12    1    4    4    0    0 -0.35721929903E+01 -0.59625914253E+02 -0.11156361922E+02  0.60765735613E+02  0.00000000000E+00 0. -1.
       -5    1    5    5    0  503  0.27165876843E+00 -0.29840874772E+02 -0.54206219843E+01  0.30692421676E+02  0.47000000000E+01 0.  1.
        1    1    6    6  502    0  0.12456588997E+02  0.74122801362E+02 -0.59433100747E+02  0.95820925458E+02  0.00000000000E+00 0. -1.
       -2    1    6    6    0  502  0.60055218170E+02  0.57204590053E+02 -0.18049685315E+03  0.19864065130E+03  0.00000000000E+00 0.  1.
</event>
<event>
12   0  0.1523332E-01  0.2461052E+03  0.7957747E-01  0.1123122E+00
       21   -1    0    0  501  503  0.00000000000E+00  0.00000000000E+00  0.22583928838E+03  0.22583928838E+03  0.00000000000E+00 0. -1.
       21   -1    0    0  503  504  0.00000000000E+00  0.00000000000E+00 -0.27355165634E+03  0.27355165634E+03  0.00000000000E+00 0.  1.
        6    2    1    2  501    0 -0.66966360585E+02  0.15927108055E+03  0.38958846343E+02  0.23847016594E+03  0.15968236529E+03 0.  0.
       24    2    3    3    0    0 -0.38358299575E+02  0.14602910564E+03  0.78183842430E+02  0.18792848638E+03  0.80053381798E+02 0.  0.
       -6    2    1    2    0  504  0.66966360585E+02 -0.15927108055E+03 -0.86671214301E+02  0.26092077877E+03  0.17525975823E+03 0.  0.
      -24    2    5    5    0    0  0.15798687689E+02 -0.16715730109E+03 -0.38167462943E+02  0.18982206486E+03  0.79903061530E+02 0.  0.
        5    1    3    3  501    0 -0.28608061010E+02  0.13241974915E+02 -0.39224996088E+02  0.50541679558E+02  0.47000000000E+01 0. -1.
      -11    1    4    4    0    0 -0.48131984495E+01  0.24634651994E+02 -0.16781500646E+02  0.30193570874E+02  0.00000000000E+00 0.  1.
       12    1    4    4    0    0 -0.33545101125E+02  0.12139445365E+03  0.94965343076E+02  0.15773491551E+03  0.00000000000E+00 0. -1.
       -5    1    5    5    0  504  0.51167672896E+02  0.78862205307E+01 -0.48503751358E+02  0.71098713910E+02  0.47000000000E+01 0.  1.
        3    1    6    6  502    0 -0.28582116576E+02 -0.29552372617E+02 -0.44112790540E+01  0.41348996337E+02  0.00000000000E+00 0. -1.
       -4    1    6    6    0  502  0.44380804265E+02 -0.13760492847E+03 -0.33756183889E+02  0.14847306852E+03  0.00000000000E+00 0.  1.
</event>
<event>
12   0  0.1523332E-01  0.1836447E+03  0.7957747E-01  0.1170065E+00
       21   -1    0    0  504  503  0.00000000000E+00  0.00000000000E+00  0.16318204038E+03  0.16318204038E+03  0.00000000000E+00 0.  1.
       21   -1    0    0  501  504  0.00000000000E+00  0.00000000000E+00 -0.20960977872E+03  0.20960977872E+03  0.00000000000E+00 0.  1.
        6    2    1    2  501    0  0.39372994843E+02  0.49691260042E+02  0.31477238659E+01  0.18257324242E+03  0.17118302087E+03 0.  0.
       24    2    3    3    0    0  0.30843361672E+02  0.77099784667E+02  0.51263676835E+02  0.12634854327E+03  0.80251480167E+02 0.  0.
       -6    2    1    2    0  503 -0.39372994843E+02 -0.49691260042E+02 -0.49575462208E+02  0.19021857669E+03  0.17235407281E+03 0.  0.
      -24    2    5    5    0    0  0.42540878102E+02 -0.16084604568E+02 -0.36420789361E+02  0.10058362094E+03  0.81988719289E+02 0.  0.
        5    1    3    3  501    0  0.85296331710E+01 -0.27408524625E+02 -0.48115952969E+02  0.56224699148E+02  0.47000000000E+01 0. -1.
        2    1    4    4  502    0  0.53976640941E+02  0.48102094093E+02  0.52309952742E+02  0.89239119108E+02  0.00000000000E+00 0. -1.
       -1    1    4    4    0  502 -0.23133279269E+02  0.28997690574E+02 -0.10462759068E+01  0.37109424162E+02  0.00000000000E+00 0.  1.
       -5    1    5    5    0  503 -0.81913872946E+02 -0.33606655474E+02 -0.13154672847E+02  0.89634955742E+02  0.47000000000E+01 0.  1.
       11    1    6    6    0    0  0.22651982738E+02  0.31813326093E+02 -0.36260448252E+01  0.39221782725E+02  0.00000000000E+00 0. -1.
      -12    1    6    6    0    0  0.19888895365E+02 -0.47897930661E+02 -0.32794744536E+02  0.61361838219E+02  0.00000000000E+00 0.  1.
</event>
<event>
12   0  0.1523332E-01  0.2023813E+03  0.7957747E-01  0.1154058E+00
       21   -1    0    0  504  503  0.00000000000E+00  0.00000000000E+00  0.44311653816E+03  0.44311653816E+03  0.00000000000E+00 0.  1.
       21   -1    0    0  501  504  0.00000000000E+00  0.00000000000E+00 -0.10489312691E+03  0.10489312691E+03  0.00000000000E+00 0.  1.
        6    2    1    2  501    0 -0.10278687192E+03  0.21308449926E+02  0.26387874034E+03  0.33255103842E+03  0.17302893537E+03 0.  0.
       24    2    3    3    0    0 -0.44928057164E+02 -0.30913351268E+02  0.22772600061E+03  0.24650529736E+03  0.77016651863E+02 0.  0.
       -6    2    1    2    0  503  0.10278687192E+03 -0.21308449926E+02  0.74344670912E+02  0.21545862664E+03  0.17284703823E+03 0.  0.
      -24    2    5    5    0    0  0.58926030375E+02 -0.38446191221E+02  0.11212519347E+03  0.15490341644E+03  0.80452611754E+02 0.  0.
        5    1    3    3  501    0 -0.57858814757E+02  0.52221801194E+02  0.36152739726E+02  0.86045741061E+02  0.47000000000E+01 0. -1.
        4    1    4    4  502    0 -0.27004977192E+02 -0.55920444003E+02  0.13039312198E+03  0.14442552098E+03  0.00000000000E+00 0. -1.
       -3    1    4    4    0  502 -0.17923079972E+02  0.25007092735E+02  0.97332878633E+02  0.10207977638E+03  0.00000000000E+00 0.  1.
       -5    1    5    5    0  503  0.43860841546E+02  0.17137741296E+02 -0.37780522563E+02  0.60555210205E+02  0.47000000000E+01 0.  1.
       13    1    6    6    0    0 -0.12362320163E+02 -0.32473823836E+02  0.44521304110E+02  0.56475859568E+02  0.00000000000E+00 0. -1.
      -14    1    6    6    0    0  0.71288350537E+02 -0.59723673855E+01  0.67603889365E+02  0.98427556872E+02  0.00000000000E+00 0.  1.
</event>
<event>
12   0  0.1523332E-01  0.1818124E+03  0.7957747E-01  0.1171742E+00
       -1   -1    0    0    0  501  0.00000000000E+00  0.00000000000E+00  0.41430491376E+02  0.41430491376E+02  0.00000000000E+00 0. -1.
        1   -1    0    0  502    0  0.00000000000E+00  0.00000000000E+00 -0.93539811628E+03  0.93539811628E+03  0.00000000000E+00 0.  1.
        6    2    1    2  502    0 -0.47199550685E+02 -0.33146883919E+02 -0.63568347257E+03  0.66136007079E+03  0.17313911298E+03 0.  0.
       24    2    3    3    0    0  0.39401712019E+02 -0.14894194494E+02 -0.24868649426E+03  0.26434408800E+03  0.79110634511E+02 0.  0.
       -6    2    1    2    0  501  0.47199550685E+02  0.33146883919E+02 -0.25828415233E+03  0.31546853686E+03  0.17170667111E+03 0.  0.
      -24    2    5    5    0    0  0.58016678424E+02 -0.31417540416E+02 -0.10006150523E+03  0.14417326198E+03  0.80128820152E+02 0.  0.
        5    1    3    3  502    0 -0.86601262704E+02 -0.18252689425E+02 -0.38699697831E+03  0.39701598279E+03  0.47000000000E+01 0. -1.
        4    1    4    4  503    0  0.28511229259E+02  0.29707915480E+02 -0.86772069934E+02  0.96046043941E+02  0.00000000000E+00 0. -1.
       -3    1    4    4    0  503  0.10890482760E+02 -0.44602109974E+02 -0.16191442433E+03  0.16829804406E+03  0.00000000000E+00 0.  1.
       -5    1    5    5    0  501 -0.10817127739E+02  0.64564424335E+02 -0.15822264709E+03  0.17129527488E+03  0.47000000000E+01 0.  1.
       11    1    6    6    0    0  0.75586041452E+01 -0.41203411895E+02 -0.77382810728E+02  0.87994051189E+02  0.00000000000E+00 0. -1.
      -12    1    6    6    0    0  0.50458074279E+02  0.97858714793E+01 -0.22678694505E+02  0.56179210790E+02  0.00000000000E+00 0.  1.
</event>
<event>
12   0  0.1523332E-01  0.2026115E+03  0.7957747E-01  0.1153873E+00
       21   -1    0    0  504  503  0.00000000000E+00  0.00000000000E+00  0.36535429987E+03  0.36535429987E+03  0.00000000000E+00 0.  1.
       21   -1    0    0  501  504  0.00000000000E+00  0.00000000000E+00 -0.19138367381E+03  0.19138367381E+03  0.00000000000E+00 0. -1.
        6    2    1    2  501    0 -0.61268156802E+01 -0.10315148379E+03 -0.92449575957E+02  0.22270689866E+03  0.17428044106E+03 0.  0.
       24    2    3    3    0    0  0.26693415683E+02 -0.11840265775E+02  0.39372951510E+01  0.85858716192E+02  0.80644197055E+02 0.  0.
       -6    2    1    2    0  503  0.61268156802E+01  0.10315148379E+03  0.26642020202E+03  0.33403107501E+03  0.17297187215E+03 0.  0.
      -24    2    5    5    0    0 -0.32020837705E+02 -0.17171610086E+01  0.94219034054E+02  0.12877998886E+03  0.81723781500E+02 0.  0.
        5    1    3    3  501    0 -0.32820231363E+02 -0.91311218014E+02 -0.96386871108E+02  0.13684818247E+03  0.47000000000E+01 0. -1.
      -13    1    4    4    0    0  0.42398955069E+02 -0.31531204728E+02 -0.14327083831E+02  0.54746265568E+02  0.00000000000E+00 0.  1.
       14    1    4    4    0    0 -0.15705539386E+02  0.19690938953E+02  0.18264378982E+02  0.31112450624E+02  0.00000000000E+00 0. -1.
       -5    1    5    5    0  503  0.38147653385E+02  0.10486864480E+03  0.17220116796E+03  0.20525108616E+03  0.47000000000E+01 0.  1.
        1    1    6    6  502    0 -0.73938048074E+01  0.23780480232E+02 -0.32034340693E+01  0.25108595728E+02  0.00000000000E+00 0. -1.
       -2    1    6    6    0  502 -0.24627032897E+02 -0.25497641240E+02  0.97422468123E+02  0.10367139313E+03  0.00000000000E+00 0.  1.
</event>
<event>
12   0  0.1523332E-01  0.2025284E+03  0.7957747E-01  0.1153940E+00
       21   -1    0    0  504  503  0.00000000000E+00  0.00000000000E+00  0.16284475149E+03  0.16284475149E+03  0.00000000000E+00 0.  1.
       21   -1    0    0  501  504  0.00000000000E+00  0.00000000000E+00 -0.13016558167E+04  0.13016558167E+04  0.00000000000E+00 0.  1.
        6    2    1    2  501    0  0.46882636866E+02  0.65511145834E+02 -0.12341019781E+04  0.12506100264E+04  0.18581725956E+03 0.  0.
       24    2    3    3    0    0 -0.28899095619E+02  0.16965476727E+02 -0.30722694333E+03  0.31936410130E+03  0.80511175383E+02 0.  0.
       -6    2    1    2    0  503 -0.46882636866E+02 -0.65511145834E+02  0.95290912883E+02  0.21389054178E+03  0.17372136863E+03 0.  0.
      -24    2    5    5    0    0  0.11970115154E+02  0.21104260254E+02  0.53076804553E+02  0.10088613508E+03  0.82293326655E+02 0.  0.
        5    1    3    3  501    0  0.75781732485E+02  0.48545669107E+02 -0.92687503480E+03  0.93124592515E+03  0.47000000000E+01 0. -1.
        4    1    4    4  502    0  0.88274714826E+01  0.21237877425E+02 -0.22699783421E+02  0.32314886007E+02  0.00000000000E+00 0. -1.
       -3    1    4    4    0  502 -0.37726567102E+02 -0.42724006980E+01 -0.28452715991E+03  0.28704921529E+03  0.00000000000E+00 0.  1.
       -5    1    5    5    0  503 -0.58852752020E+02 -0.86615406088E+02  0.42214108330E+02  0.11300440670E+03  0.47000000000E+01 0.  1.
       11    1    6    6    0    0  0.32573229782E+02 -0.19908386794E+02  0.34216271713E+02  0.51265118873E+02  0.00000000000E+00 0. -1.
      -12    1    6    6    0    0 -0.20603114628E+02  0.41012647049E+02  0.18860532841E+02  0.49621016206E+02  0.00000000000E+00 0.  1.
</event>
<event>
12   0  0.1523332E-01  0.1787998E+03  0.7957747E-01  0.1174548E+00
       21   -1    0    0  501  503  0.00000000000E+00  0.00000000000E+00  0.20571153845E+03  0.20571153845E+03  0.00000000000E+00 0. -1.
       21   -1    0    0  503  504  0.00000000000E+00  0.00000000000E+00 -0.28305409758E+03  0.28305409758E+03  0.00000000000E+00 0. -1.
        6    2    1    2  501    0 -0.22665004769E+02  0.40363077005E+02  0.12579824930E+03  0.21814495640E+03  0.17210212681E+03 0.  0.
       24    2    3    3    0    0 -0.50503336967E+02  0.75032242427E+02  0.49699367609E+02  0.12988367630E+03  0.78862651371E+02 0.  0.
       -6    2    1    2    0  504  0.22665004769E+02 -0.40363077005E+02 -0.20314080843E+03  0.27062067963E+03  0.17270345615E+03 0.  0.
      -24    2    5    5    0    0  0.83359702334E+01  0.15565052537E+02 -0.29886477519E+02  0.87939454309E+02  0.80798433311E+02 0.  0.
        5    1    3    3  501    0  0.27838332198E+02 -0.34669165421E+02  0.76098881689E+02  0.88261280100E+02  0.47000000000E+01 0. -1.
      -11    1    4    4    0    0  0.16001982325E+02  0.14941278697E+02  0.31599354973E+02  0.38442482778E+02  0.00000000000E+00 0.  1.
       12    1    4    4    0    0 -0.66505319293E+02  0.60090963729E+02  0.18100012636E+02  0.91441193527E+02  0.00000000000E+00 0. -1.
       -5    1    5    5    0  504  0.14329034536E+02 -0.55928129542E+02 -0.17325433091E+03  0.18268122532E+03  0.47000000000E+01 0.  1.
        3    1    6    6  502    0  0.44346825400E+02  0.35783878955E+01 -0.19598882410E+02  0.48616478428E+02  0.00000000000E+00 0. -1.
       -4    1    6    6    0  502 -0.36010855166E+02  0.11986664641E+02 -0.10287595109E+02  0.39322975881E+02  0.00000000000E+00 0.  1.
</event>
<event>
12   0  0.1523332E-01  0.2113077E+03  0.7957747E-01  0.1147086E+00
       21   -1    0    0  501  503  0.00000000000E+00  0.00000000000E+00  0.17138441693E+03  0.17138441693E+03  0.00000000000E+00 0.  1.
       21   -1    0    0  503  504  0.00000000000E+00  0.00000000000E+00 -0.29013691480E+03  0.29013691480E+03  0.00000000000E+00 0. -1.
        6    2    1    2  501    0 -0.81245172828E+02 -0.87406076058E+02  0.16391260605E+02  0.21194251746E+03  0.17438565607E+03 0.  0.
       24    2    3    3    0    0 -0.39860187050E+02  0.23081847594E+02  0.33498755775E+00  0.92777958027E+02  0.80535899319E+02 0.  0.
       -6    2    1    2    0  504  0.81245172828E+02  0.87406076058E+02 -0.13514375848E+03  0.24957881427E+03  0.17258374441E+03 0.  0.
      -24    2    5    5    0    0  0.51765835856E+01  0.76647886853E+02 -0.13221908248E+03  0.17255406088E+03  0.79945747723E+02 0.  0.
        5    1    3    3  501    0 -0.41384985778E+02 -0.11048792365E+03  0.16056273047E+02  0.11916455943E+03  0.47000000000E+01 0. -1.
      -13    1    4    4    0    0 -0.48006846577E+02  0.31889195411E+01  0.29583054850E+02  0.56479940336E+02  0.00000000000E+00 0.  1.
       14    1    4    4    0    0  0.81466595277E+01  0.19892928053E+02 -0.29248067292E+02  0.36298017691E+02  0.00000000000E+00 0. -1.
       -5    1    5    5    0  504  0.76068589242E+02  0.10758189205E+02 -0.29246760001E+01  0.77024753385E+02  0.47000000000E+01 0.  1.
        1    1    6    6  502    0 -0.35323076956E+02  0.36490532227E+02 -0.42410060549E+02  0.66165640204E+02  0.00000000000E+00 0. -1.
       -2    1    6    6    0  502  0.40499660542E+02  0.40157354626E+02 -0.89809021928E+02  0.10638842068E+03  0.00000000000E+00 0.  1.
</event>
<event>
12   0  0.1523332E-01  0.1925299E+03  0.7957747E-01  0.1162225E+00
        3   -1    0    0  502    0  0.00000000000E+00  0.00000000000E+00  0.36041262589E+03  0.36041262589E+03  0.00000000000E+00 0. -1.
       -3   -1    0    0    0  501  0.00000000000E+00  0.00000000000E+00 -0.11084943427E+03  0.11084943427E+03  0.00000000000E+00 0.  1.
        6    2    1    2  502    0 -0.65037777913E+02 -0.17603631061E+02  0.57891972882E+02  0.19457894685E+03  0.17311754865E+03 0.  0.
       24    2    3    3    0    0 -0.40970348540E+02  0.34007370762E+02  0.88612671246E+02  0.12970377460E+03  0.78331302269E+02 0.  0.
       -6    2    1    2    0  501  0.65037777913E+02  0.17603631061E+02  0.19167121874E+03  0.27668311332E+03  0.18781876562E+03 0.  0.
      -24    2    5    5    0    0  0.39382284429E+02 -0.63008814241E+02  0.73703901909E+02  0.13144211179E+03  0.79521623455E+02 0.  0.
        5    1    3    3  502    0 -0.24067429373E+02 -0.51611001824E+02 -0.30720698364E+02  0.64875172245E+02  0.47000000000E+01 0. -1.
      -13    1    4    4    0    0 -0.18114260615E+02 -0.95229706296E+01 -0.74592968248E+01  0.21781976870E+02  0.00000000000E+00 0.  1.
       14    1    4    4    0    0 -0.22856087925E+02  0.43530341392E+02  0.96071968071E+02  0.10792179773E+03  0.00000000000E+00 0. -1.
       -5    1    5    5    0  501  0.25655493484E+02  0.80612445303E+02  0.11796731683E+03  0.14524100153E+03  0.47000000000E+01 0.  1.
        3    1    6    6  503    0  0.15172264046E+02 -0.47010792645E+02  0.86591248736E+02  0.99690804887E+02  0.00000000000E+00 0. -1.
       -4    1    6    6    0  503  0.24210020383E+02 -0.15998021596E+02 -0.12887346827E+02  0.31751306905E+02  0.00000000000E+00 0.  1.
</event>
<event>
12   0  0.1523332E-01  0.2166665E+03  0.7957747E-01  0.1143079E+00
       21   -1    0    0  501  503  0.00000000000E+00  0.00000000000E+00  0.12435831343E+03  0.12435831343E+03  0.00000000000E+00 0. -1.
       21   -1    0    0  503  504  0.00000000000E+00  0.00000000000E+00 -0.42445940802E+03  0.42445940802E+03  0.00000000000E+00 0. -1.
        6    2    1    2  501    0 -0.22712109757E+02  0.12624028018E+03 -0.57032370889E+02  0.22404698285E+03  0.17461933147E+03 0.  0.
       24    2    3    3    0    0 -0.43403735876E+02  0.61350502928E+02 -0.96723509036E+02  0.14507671610E+03  0.77743474682E+02 0.  0.
       -6    2    1    2    0  504  0.22712109757E+02 -0.12624028018E+03 -0.24306872370E+03  0.32477073860E+03  0.17303519856E+03 0.  0.
      -24    2    5    5    0    0 -0.15144959253E+02 -0.84180181170E+02 -0.24193955522E+03  0.26797659609E+03  0.77207739114E+02 0.  0.
        5    1    3    3  501    0  0.20691626119E+02  0.64889777252E+02  0.39691138146E+02  0.78970266750E+02  0.47000000000E+01 0. -1.
      -11    1    4    4    0    0 -0.66315294426E+01  0.19149361829E+02  0.11452218349E+02  0.23277210879E+02  0.00000000000E+00 0.  1.
       12    1    4    4    0    0 -0.36772206433E+02  0.42201141099E+02 -0.10817572738E+03  0.12179950522E+03  0.00000000000E+00 0. -1.
       -5    1    5    5    0  504  0.37857069010E+02 -0.42060099010E+02 -0.11291684862E+01  0.56794142516E+02  0.47000000000E+01 0.  1.
        3    1    6    6  502    0 -0.45725036235E+02 -0.53415845495E+02 -0.17005682760E+03  0.18401998832E+03  0.00000000000E+00 0. -1.
       -4    1    6    6    0  502  0.30580076982E+02 -0.30764335675E+02 -0.71882727619E+02  0.83956607767E+02  0.00000000000E+00 0.  1.
</event>
<event>
12   0  0.1523332E-01  0.1761524E+03  0.7957747E-01  0.1177064E+00
       21   -1    0    0  504  503  0.00000000000E+00  0.00000000000E+00  0.66791793611E+03  0.66791793611E+03  0.00000000000E+00 0. -1.
       21   -1    0    0  501  504  0.00000000000E+00  0.00000000000E+00 -0.73757442975E+02  0.73757442975E+02  0.00000000000E+00 0. -1.
        6    2    1    2  501    0 -0.19829463754E+02 -0.26740436869E+02  0.71270980642E+02  0.19002427056E+03  0.17297806833E+03 0.  0.
       24    2    3    3    0    0  0.11262111674E+02 -0.77249799670E+02  0.26243777799E+02  0.11540911936E+03  0.80846535173E+02 0.  0.
       -6    2    1    2    0  503  0.19829463754E+02  0.26740436869E+02  0.52288951250E+03  0.55165110853E+03  0.17261878422E+03 0.  0.
      -24    2    5    5    0    0  0.45195870910E+02  0.69469517231E+02  0.44018584707E+03  0.45505289325E+03  0.80255062893E+02 0.  0.
        5    1    3    3  501    0 -0.31091575428E+02  0.50509362801E+02  0.45027202843E+02  0.74615151202E+02  0.47000000000E+01 0. -1.
      -13    1    4    4    0    0 -0.61594233043E+01  0.16191826671E+02  0.46038937845E+01  0.17925110442E+02  0.00000000000E+00 0.  1.
       14    1    4    4    0    0  0.17421534978E+02 -0.93441626340E+02  0.21639884014E+02  0.97484008916E+02  0.00000000000E+00 0. -1.
       -5    1    5    5    0  503 -0.25366407156E+02 -0.42729080362E+02  0.82703665428E+02  0.96598215283E+02  0.47000000000E+01 0.  1.
        1    1    6    6  502    0 -0.18297032263E+02  0.11335655204E+02  0.37230966656E+02  0.43004922354E+02  0.00000000000E+00 0. -1.
       -2    1    6    6    0  502  0.63492903173E+02  0.58133862028E+02  0.40295488041E+03  0.41204797089E+03  0.00000000000E+00 0.  1.
</event>
<event>
12   0  0.1523332E-01  0.2577724E+03  0.7957747E-01  0.1116038E+00
       21   -1    0    0  501  503  0.00000000000E+00  0.00000000000E+00  0.23015300292E+03  0.23015300292E+03  0.00000000000E+00 0. -1.
       21   -1    0    0  503  504  0.00000000000E+00  0.00000000000E+00 -0.30466337838E+03  0.30466337838E+03  0.00000000000E+00 0.  1.
        6    2    1    2  501    0 -0.17751965539E+03  0.54307410695E+02 -0.10662430031E+03  0.27505129815E+03  0.17269033641E+03 0.  0.
       24    2    3    3    0    0 -0.16065859995E+03  0.95406626934E+02 -0.10829259616E+03  0.23034879288E+03  0.80122841923E+02 0.  0.
       -6    2    1    2    0  504  0.17751965539E+03 -0.54307410695E+02  0.32113924843E+02  0.25976508315E+03  0.17884091073E+03 0.  0.
      -24    2    5    5    0    0  0.22064208232E+02 -0.48638619920E+02  0.38638633168E+02  0.10399861353E+03  0.80437696450E+02 0.  0.
        5    1    3    3  501    0 -0.16861055446E+02 -0.41099216240E+02  0.16682958502E+01  0.44702505269E+02  0.47000000000E+01 0. -1.
      -11    1    4    4    0    0 -0.48599766728E+02 -0.91063618274E+01 -0.34368353354E+02  0.60216665999E+02  0.00000000000E+00 0.  1.
       12    1    4    4    0    0 -0.11205883322E+03  0.10451298876E+03 -0.73924242805E+02  0.17013212688E+03  0.00000000000E+00 0. -1.
       -5    1    5    5    0  504  0.15545544716E+03 -0.56687907745E+01 -0.65247083254E+01  0.15576646962E+03  0.47000000000E+01 0.  1.
        1    1    6    6  502    0  0.37256027507E+02 -0.64387934002E+02  0.33130973654E+02  0.81433893717E+02  0.00000000000E+00 0. -1.
       -2    1    6    6    0  502 -0.15191819275E+02  0.15749314081E+02  0.55076595136E+01  0.22564719813E+02  0.00000000000E+00 0.  1.
</event>
<event>
12   0  0.1523332E-01  0.2074156E+03  0.7957747E-01  0.1150078E+00
       21   -1    0    0  501  503  0.00000000000E+00  0.00000000000E+00  0.56670581988E+02  0.56670581988E+02  0.00000000000E+00 0.  1.
       21   -1    0    0  503  504  0.00000000000E+00  0.00000000000E+00 -0.81498101370E+03  0.81498101370E+03  0.00000000000E+00 0. -1.
        6    2    1    2  501    0 -0.40916510856E+02 -0.10656972937E+03 -0.26300752913E+03  0.33495404417E+03  0.17317616247E+03 0.  0.
       24    2    3    3    0    0  0.12789571270E+01 -0.63723489730E+02 -0.25307655136E+03  0.27382326559E+03  0.82880160819E+02 0.  0.
       -6    2    1    2    0  504  0.40916510856E+02  0.10656972937E+03 -0.49530290258E+03  0.53669755152E+03  0.17230214283E+03 0.  0.
      -24    2    5    5    0    0 -0.33697813942E+02  0.96193669341E+02 -0.34308920287E+03  0.36679740300E+03  0.80258140000E+02 0.  0.
        5    1    3    3  501    0 -0.42195467983E+02 -0.42846239642E+02 -0.99309777713E+01  0.61130778576E+02  0.47000000000E+01 0. -1.
        4    1    4    4  502    0 -0.25153487778E+02 -0.50986492810E+02 -0.22874947152E+03  0.23570880577E+03  0.00000000000E+00 0. -1.
       -3    1    4    4    0  502  0.26432444905E+02 -0.12736996920E+02 -0.24327079841E+02  0.38114459825E+02  0.00000000000E+00 0.  1.
       -5    1    5    5    0  504  0.74614324798E+02  0.10376060031E+02 -0.15221369971E+03  0.16990014852E+03  0.47000000000E+01 0.  1.
       11    1    6    6    0    0 -0.19653965147E+02  0.89148483400E+02 -0.33825708613E+03  0.35035922530E+03  0.00000000000E+00 0. -1.
      -12    1    6    6    0    0 -0.14043848794E+02  0.70451859407E+01 -0.48321167449E+01  0.16438177701E+02  0.00000000000E+00 0.  1.
</event>
<event>
12   0  0.1523332E-01  0.1953864E+03  0.7957747E-01  0.1159802E+00
       21   -1    0    0  504  503  0.00000000000E+00  0.00000000000E+00  0.42415997701E+03  0.42415997701E+03  0.00000000000E+00 0. -1.
       21   -1    0    0  501  504  0.00000000000E+00  0.00000000000E+00 -0.14066723547E+03  0.14066723547E+03  0.00000000000E+00 0. -1.
        6    2    1    2  501    0  0.86354939800E+02  0.24209574782E+02 -0.28017384340E+02  0.19738494404E+03  0.17358733586E+03 0.  0.
       24    2    3    3    0    0  0.53346138415E+01 -0.12252329303E+02  0.34010398457E+02  0.88926198398E+02  0.81071473899E+02 0.  0.
       -6    2    1    2    0  503 -0.86354939800E+02 -0.24209574782E+02  0.31151012588E+03  0.36744226843E+03  0.17300862108E+03 0.  0.
      -24    2    5    5    0    0 -0.71460303491E+02  0.48834535216E+02  0.16529709036E+03  0.20325446757E+03  0.80609327639E+02 0.  0.
        5    1    3    3  501    0  0.81020325959E+02  0.36461904085E+02 -0.62027782797E+02  0.10845874564E+03  0.47000000000E+01 0. -1.
        2    1    4    4  502    0  0.97205575967E+01  0.28824754854E+02 -0.64569589603E+01  0.31097396216E+02  0.00000000000E+00 0. -1.
       -1    1    4    4    0  502 -0.43859437552E+01 -0.41077084157E+02  0.40467357417E+02  0.57828802182E+02  0.00000000000E+00 0.  1.
       -5    1    5    5    0  503 -0.14894636309E+02 -0.73044109997E+02  0.14621303552E+03  0.16418780086E+03  0.47000000000E+01 0.  1.
       11    1    6    6    0    0 -0.44844849033E+02 -0.50264202672E+01  0.11942407648E+03  0.12766532587E+03  0.00000000000E+00 0. -1.
      -12    1    6    6    0    0 -0.26615454458E+02  0.53860955483E+02  0.45873013877E+02  0.75589141705E+02  0.00000000000E+00 0.  1.
</event>
<event>
12   0  0.1523332E-01  0.3157015E+03  0.7957747E-01  0.1086056E+00
       -2   -1    0    0    0  501  0.00000000000E+00  0.00000000000E+00  0.93081254039E+02  0.93081254039E+02  0.00000000000E+00 0.  1.
        2   -1    0    0  502    0  0.00000000000E+00  0.00000000000E+00 -0.10731732631E+04  0.10731732631E+04  0.00000000000E+00 0. -1.
        6    2    1    2  502    0  0.11860194188E+03  0.23586350953E+03 -0.51828382831E+03  0.60705960510E+03  0.17379649510E+03 0.  0.
       24    2    3    3    0    0  0.99142737155E+01  0.16414041420E+03 -0.25520680207E+03  0.31348027451E+03  0.78096109288E+02 0.  0.
       -6    2    1    2    0  501 -0.11860194188E+03 -0.23586350953E+03 -0.46180818072E+03  0.55919491201E+03  0.17243589559E+03 0.  0.
      -24    2    5    5    0    0 -0.28554073706E+02 -0.21126442765E+03 -0.29299298584E+03  0.36623275662E+03  0.53231088181E+02 0.  0.
        5    1    3    3  502    0  0.10868766816E+03  0.71723095336E+02 -0.26307702624E+03  0.29357933059E+03  0.47000000000E+01 0. -1.
      -13    1    4    4    0    0 -0.19004455729E+02  0.32147664512E+02 -0.20358609174E+02  0.42533688279E+02  0.00000000000E+00 0.  1.
       14    1    4    4    0    0  0.28918729444E+02  0.13199274969E+03 -0.23484819290E+03  0.27094658623E+03  0.00000000000E+00 0. -1.
       -5    1    5    5    0  501 -0.90047868174E+02 -0.24599081881E+02 -0.16881519488E+03  0.19296215539E+03  0.47000000000E+01 0.  1.
        3    1    6    6  503    0 -0.19910169946E+02 -0.74780495788E+02 -0.14742585285E+03  0.16650201052E+03  0.00000000000E+00 0. -1.
       -4    1    6    6    0  503 -0.86439037601E+01 -0.13648393187E+03 -0.14556713299E+03  0.19973074610E+03  0.00000000000E+00 0.  1.
</event>
<event>
12   0  0.1523332E-01  0.1942387E+03  0.7957747E-01  0.1160770E+00
       21   -1    0    0  501  503  0.00000000000E+00  0.00000000000E+00  0.40218589210E+03  0.40218589210E+03  0.00000000000E+00 0. -1.
       21   -1    0    0  503  504  0.00000000000E+00  0.00000000000E+00 -0.11649029504E+03  0.11649029504E+03  0.00000000000E+00 0. -1.
        6    2    1    2  501    0  0.30354290202E+01 -0.81434564856E+02  0.26279990557E+03  0.32679117247E+03  0.17631754834E+03 0.  0.
       24    2    3    3    0    0 -0.54285386875E+02 -0.28050819503E+02  0.82188847193E+02  0.12987000903E+03  0.79859006627E+02 0.  0.
       -6    2    1    2    0  504 -0.30354290202E+01  0.81434564856E+02  0.22895691494E+02  0.19188501468E+03  0.17220581868E+03 0.  0.
      -24    2    5    5    0    0 -0.24295067050E+02  0.78924922020E+02 -0.41889674109E+02  0.12349273359E+03  0.81708731805E+02 0.  0.
        5    1    3    3  501    0  0.57320815895E+02 -0.53383745353E+02  0.18061105837E+03  0.19692116344E+03  0.47000000000E+01 0. -1.
        4    1    4    4  502    0 -0.41790900679E+02 -0.50778201195E+02  0.80403608996E+02  0.10387321809E+03  0.00000000000E+00 0. -1.
       -3    1    4    4    0  502 -0.12494486196E+02  0.22727381692E+02  0.17852381967E+01  0.25996790942E+02  0.00000000000E+00 0.  1.
       -5    1    5    5    0  504  0.21259638030E+02  0.25096428364E+01  0.64785365603E+02  0.68392281090E+02  0.47000000000E+01 0.  1.
       11    1    6    6    0    0 -0.34666939373E+02  0.29780996740E+02 -0.55071589083E+02  0.71565245590E+02  0.00000000000E+00 0. -1.
      -12    1    6    6    0    0  0.10371872323E+02  0.49143925280E+02  0.13181914974E+02  0.51927487998E+02  0.00000000000E+00 0.  1.
</event>
<event>
12   0  0.1523332E-01  0.1984662E+03  0.7957747E-01  0.1157241E+00
       21   -1    0    0  504  503  0.00000000000E+00  0.00000000000E+00  0.60342168826E+03  0.60342168826E+03  0.00000000000E+00 0.  1.
       21   -1    0    0  501  504  0.00000000000E+00  0.00000000000E+00 -0.11341496748E+03  0.11341496748E+03  0.00000000000E+00 0.  1.
        6    2    1    2  501    0 -0.37639439596E+02  0.90112746974E+02  0.11355972711E+02  0.19879078885E+03  0.17277669124E+03 0.  0.
       24    2    3    3    0    0  0.40128861485E+02  0.71906984500E+02 -0.11578104335E+02  0.11555966288E+03  0.80243649225E+02 0.  0.
       -6    2    1    2    0  503  0.37639439596E+02 -0.90112746974E+02  0.47865074806E+03  0.51804586689E+03  0.17241794282E+03 0.  0.
      -24    2    5    5    0    0  0.31830587381E+02 -0.38704784110E+02  0.11421759352E+03  0.14992885352E+03  0.83197090338E+02 0.  0.
        5    1    3    3  501    0 -0.77768301080E+02  0.18205762474E+02  0.22934077046E+02  0.83231125970E+02  0.47000000000E+01 0. -1.
      -11    1    4    4    0    0 -0.14512400355E+02  0.43553253074E+02 -0.25402193267E+02  0.52466818468E+02  0.00000000000E+00 0.  1.
       12    1    4    4    0    0  0.54641261839E+02  0.28353731426E+02  0.13824088932E+02  0.63092844412E+02  0.00000000000E+00 0. -1.
       -5    1    5    5    0  503  0.58088522147E+01 -0.51407962864E+02  0.36443315454E+03  0.36811701338E+03  0.47000000000E+01 0.  1.
        1    1    6    6  502    0 -0.26658106277E+02 -0.26052645990E+02  0.42930365994E+02  0.56854299026E+02  0.00000000000E+00 0. -1.
       -2    1    6    6    0  502  0.58488693658E+02 -0.12652138120E+02  0.71287227527E+02  0.93074554489E+02  0.00000000000E+00 0.  1.
</event>
<event>
12   0  0.1523332E-01  0.2102552E+03  0.7957747E-01  0.1147888E+00
       21   -1    0    0  501  503  0.00000000000E+00  0.00000000000E+00  0.24887426916E+03  0.24887426916E+03  0.00000000000E+00 0.  1.
       21   -1    0    0  503  504  0.00000000000E+00  0.00000000000E+00 -0.17917642715E+03  0.17917642715E+03  0.00000000000E+00 0. -1.
        6    2    1    2  501    0  0.11848775320E+03  0.10886108820E+02  0.12757540057E+02  0.21022176752E+03  0.17283686438E+03 0.  0.
       24    2    3    3    0    0  0.11535615546E+03 -0.43985803048E+02  0.33930872143E+02  0.15113595190E+03  0.80305531564E+02 0.  0.
       -6    2    1    2    0  504 -0.11848775320E+03 -0.10886108820E+02  0.56940301955E+02  0.21782892879E+03  0.17334759648E+03 0.  0.
      -24    2    5    5    0    0 -0.13785329115E+02 -0.10103333267E+02 -0.28699474174E+02  0.82479486225E+02  0.75412818461E+02 0.  0.
        5    1    3    3  501    0  0.31315977417E+01  0.54871911868E+02 -0.21173332086E+02  0.59085815625E+02  0.47000000000E+01 0. -1.
      -13    1    4    4    0    0  0.45939410473E+02 -0.18623105307E+00  0.49564767893E+02  0.67580547000E+02  0.00000000000E+00 0.  1.
       14    1    4    4    0    0  0.69416744982E+02 -0.43799571995E+02 -0.15633895749E+02  0.83555404895E+02  0.00000000000E+00 0. -1.
       -5    1    5    5    0  504 -0.10470242408E+03 -0.78277555307E+00  0.85639776128E+02  0.13534944256E+03  0.47000000000E+01 0.  1.
        3    1    6    6  502    0 -0.21826914417E+02  0.27401027531E+02 -0.78534046757E+00  0.35040651569E+02  0.00000000000E+00 0. -1.
       -4    1    6    6    0  502  0.80415853019E+01 -0.37504360797E+02 -0.27914133706E+02  0.47438834656E+02  0.00000000000E+00 0.  1.
</event>
<event>
12   0  0.1523332E-01  0.1844063E+03  0.7957747E-01  0.1169374E+00
       21   -1    0    0  501  503  0.00000000000E+00  0.00000000000E+00  0.10109248814E+03  0.10109248814E+03  0.00000000000E+00 0.  1.
       21   -1    0    0  503  504  0.00000000000E+00  0.00000000000E+00 -0.60033745330E+03  0.60033745330E+03  0.00000000000E+00 0.  1.
        6    2    1    2  501    0  0.16671767930E+02 -0.65701742778E+02 -0.48251476202E+03  0.51626627529E+03  0.17063324582E+03 0.  0.
       24    2    3    3    0    0 -0.30004504328E+02 -0.32618715064E+02 -0.12967288120E+03  0.15878530519E+03  0.80208890874E+02 0.  0.
       -6    2    1    2    0  504 -0.16671767930E+02  0.65701742778E+02 -0.16730203140E+02  0.18516366615E+03  0.17149640438E+03 0.  0.
      -24    2    5    5    0    0 -0.62241916212E+02  0.13487436044E+02 -0.43758200263E+02  0.11062793734E+03  0.79169396638E+02 0.  0.
        5    1    3    3  501    0  0.46676272257E+02 -0.33083027714E+02 -0.35284188083E+03  0.35748097010E+03  0.47000000000E+01 0. -1.
        2    1    4    4  502    0 -0.56155727705E+01 -0.47286629156E+02 -0.32809625863E+02  0.57827601574E+02  0.00000000000E+00 0. -1.
       -1    1    4    4    0  502 -0.24388931557E+02  0.14667914093E+02 -0.96863255334E+02  0.10095770362E+03  0.00000000000E+00 0.  1.
       -5    1    5    5    0  504  0.45570148282E+02  0.52214306734E+02  0.27027997123E+02  0.74535728819E+02  0.47000000000E+01 0.  1.
       11    1    6    6    0    0 -0.30632362748E+02  0.46639481053E+02 -0.23967822049E+02  0.60729229653E+02  0.00000000000E+00 0. -1.
      -12    1    6    6    0    0 -0.31609553464E+02 -0.33152045010E+02 -0.19790378214E+02  0.49898707682E+02  0.00000000000E+00 0.  1.
</event>
<event>
12   0  0.1523332E-01  0.2100255E+03  0.7957747E-01  0.1148064E+00
       21   -1    0    0  501  503  0.00000000000E+00  0.00000000000E+00  0.94241173063E+02  0.94241173063E+02  0.00000000000E+00 0. -1.
       21   -1    0    0  503  504  0.00000000000E+00  0.00000000000E+00 -0.45098250127E+03  0.45098250127E+03  0.00000000000E+00 0. -1.
        6    2    1    2  501    0  0.69555747903E+02 -0.70899304226E+02 -0.14997623795E+03  0.25807665888E+03  0.18505668457E+03 0.  0.
       24    2    3    3    0    0 -0.20344894296E+02  0.80078855266E+01 -0.54419228907E+02  0.10490452682E+03  0.86979689113E+02 0.  0.
       -6    2    1    2    0  504 -0.69555747903E+02  0.70899304226E+02 -0.20676509025E+03  0.28714701545E+03  0.17273358830E+03 0.  0.
      -24    2    5    5    0    0  0.26547314838E+02  0.30335611340E+02 -0.80822997640E+02  0.12354777174E+03  0.84301160815E+02 0.  0.
        5    1    3    3  501    0  0.89900642200E+02 -0.78907189752E+02 -0.95557009046E+02  0.15317213206E+03  0.47000000000E+01 0. -1.
      -13    1    4    4    0    0 -0.43824332791E+02 -0.23995542024E+02 -0.28990077349E+02  0.57764892161E+02  0.00000000000E+00 0.  1.
       14    1    4    4    0    0  0.23479438495E+02  0.32003427550E+02 -0.25429151557E+02  0.47139634660E+02  0.00000000000E+00 0. -1.
       -5    1    5    5    0  504 -0.96103062741E+02  0.40563692886E+02 -0.12594209261E+03  0.16359924370E+03  0.47000000000E+01 0.  1.
        3    1    6    6  502    0 -0.78547249090E+00  0.45678241522E+02 -0.80079325684E+02  0.92194452748E+02  0.00000000000E+00 0. -1.
       -4    1    6    6    0  502  0.27332787329E+02 -0.15342630182E+02 -0.74367195658E+00  0.31353318996E+02  0.00000000000E+00 0.  1.
</event>
<event>
12   0  0.1523332E-01  0.2024953E+03  0.7957747E-01  0.1153966E+00
       21   -1    0    0  504  503  0.00000000000E+00  0.00000000000E+00  0.35818072450E+03  0.35818072450E+03  0.00000000000E+00 0. -1.
       21   -1    0    0  501  504  0.00000000000E+00  0.00000000000E+00 -0.12406047668E+03  0.12406047668E+03  0.00000000000E+00 0.  1.
        6    2    1    2  501    0 -0.93474671757E+02 -0.35353134506E+02  0.18756620299E+03  0.27446341736E+03  0.17367132343E+03 0.  0.
       24    2    3    3    0    0 -0.48721950322E+02  0.88711776146E+01  0.18917879439E+03  0.21135013580E+03  0.80173171434E+02 0.  0.
       -6    2    1    2    0  503  0.93474671757E+02  0.35353134506E+02  0.46554044826E+02  0.20777778381E+03  0.17611635352E+03 0.  0.
      -24    2    5    5    0    0  0.95435750214E+02 -0.86784251331E+00 -0.26921532829E+02  0.12570126149E+03  0.77248318045E+02 0.  0.
        5    1    3    3  501    0 -0.44752721435E+02 -0.44224312121E+02 -0.16125913980E+01  0.63113281561E+02  0.47000000000E+01 0. -1.
      -11    1    4    4    0    0 -0.41994724892E+02  0.35201882030E+02  0.68870908643E+02  0.88010973603E+02  0.00000000000E+00 0.  1.
       12    1    4    4    0    0 -0.67272254302E+01 -0.26330704415E+02  0.12030788575E+03  0.12333916219E+03  0.00000000000E+00 0. -1.
       -5    1    5    5    0  503 -0.19610784565E+01  0.36220977020E+02  0.73475577656E+02  0.82076522324E+02  0.47000000000E+01 0.  1.
        1    1    6    6  502    0  0.52624453415E+01 -0.23084654496E+02 -0.22598991847E+02  0.32730857561E+02  0.00000000000E+00 0. -1.
       -2    1    6    6    0  502  0.90173304872E+02  0.22216811983E+02 -0.43225409828E+01  0.92970403929E+02  0.00000000000E+00 0.  1.
</event>
<event>
12   0  0.1523332E-01  0.2979224E+03  0.7957747E-01  0.1094463E+00
       -2   -1    0    0    0  501  0.00000000000E+00  0.00000000000E+00  0.15835055025E+03  0.15835055025E+03  0.00000000000E+00 0.  1.
        2   -1    0    0  502    0  0.00000000000E+00  0.00000000000E+00 -0.73103389186E+03  0.73103389186E+03  0.00000000000E+00 0. -1.
        6    2    1    2  502    0  0.52786820041E+02  0.23705767125E+03 -0.71211645984E+02  0.30584139082E+03  0.17171217180E+03 0.  0.
       24    2    3    3    0    0  0.52838440371E+02  0.68186358467E+02  0.78677392494E+01  0.11931213811E+03  0.82050013519E+02 0.  0.
       -6    2    1    2    0  501 -0.52786820041E+02 -0.23705767125E+03 -0.50147169563E+03  0.58354305129E+03  0.17339504987E+03 0.  0.
      -24    2    5    5    0    0 -0.94744376770E+02 -0.19624051211E+03 -0.33763736552E+03  0.40950209413E+03  0.78779051640E+02 0.  0.
        5    1    3    3  502    0 -0.51620329624E-01  0.16887131279E+03 -0.79079385233E+02  0.18652925271E+03  0.47000000000E+01 0. -1.
        2    1    4    4  503    0 -0.17519547922E+02  0.35534044323E+02  0.12678681600E+02  0.41597497911E+02  0.00000000000E+00 0. -1.
       -1    1    4    4    0  503  0.70357988293E+02  0.32652314145E+02 -0.48109423507E+01  0.77714640203E+02  0.00000000000E+00 0.  1.
       -5    1    5    5    0  501  0.41957556728E+02 -0.40817159138E+02 -0.16383433010E+03  0.17404095715E+03  0.47000000000E+01 0.  1.
       11    1    6    6    0    0  0.58270978432E+01 -0.79930334856E+01 -0.52011414264E+02  0.52943657479E+02  0.00000000000E+00 0. -1.
      -12    1    6    6    0    0 -0.10057147461E+03 -0.18824747863E+03 -0.28562595126E+03  0.35655843665E+03  0.00000000000E+00 0.  1.
</event>
<event>
12   0  0.1523332E-01  0.1936918E+03  0.7957747E-01  0.1161234E+00
       21   -1    0    0  501  503  0.00000000000E+00  0.00000000000E+00  0.53921259233E+03  0.53921259233E+03  0.00000000000E+00 0. -1.
       21   -1    0    0  503  504  0.00000000000E+00  0.00000000000E+00 -0.66752767346E+02  0.66752767346E+02  0.00000000000E+00 0.  1.
        6    2    1    2  501    0  0.86304121305E+02  0.94227501746E+01  0.25562114695E+03  0.31521539405E+03  0.16273101825E+03 0.  0.
       24    2    3    3    0    0  0.38888540151E+02  0.44326872962E+02  0.21205313296E+03  0.24182059200E+03  0.10016724663E+03 0.  0.
       -6    2    1    2    0  504 -0.86304121305E+02 -0.94227501746E+01  0.21683867804E+03  0.29074996563E+03  0.17314543208E+03 0.  0.
      -24    2    5    5    0    0 -0.23579942891E+02  0.83907088733E+01  0.20829642202E+03  0.22482044251E+03  0.80810978487E+02 0.  0.
        5    1    3    3  501    0  0.47415581154E+02 -0.34904122788E+02  0.43568013994E+02  0.73394802044E+02  0.47000000000E+01 0. -1.
      -11    1    4    4    0    0 -0.19541186426E+02  0.38469462036E+02  0.35875977394E+02  0.56114554531E+02  0.00000000000E+00 0.  1.
       12    1    4    4    0    0  0.58429726576E+02  0.58574109263E+01  0.17617715556E+03  0.18570603747E+03  0.00000000000E+00 0. -1.
       -5    1    5    5    0  504 -0.62724178414E+02 -0.17813459048E+02  0.85422560164E+01  0.65929523119E+02  0.47000000000E+01 0.  1.
        3    1    6    6  502    0  0.91256835941E+01 -0.21746869756E+02  0.18757946323E+02  0.30134116803E+02  0.00000000000E+00 0. -1.
       -4    1    6    6    0  502 -0.32705626485E+02  0.30137578630E+02  0.18953847570E+03  0.19468632571E+03  0.00000000000E+00 0.  1.
</event>
<event>
12   0  0.1523332E-01  0.2228794E+03  0.7957747E-01  0.1138589E+00
       21   -1    0    0  501  503  0.00000000000E+00  0.00000000000E+00  0.21017570943E+03  0.21017570943E+03  0.00000000000E+00 0.  1.
       21   -1    0    0  503  504  0.00000000000E+00  0.00000000000E+00 -0.23846698217E+03  0.23846698217E+03  0.00000000000E+00 0.  1.
        6    2    1    2  501    0  0.11764418056E+03  0.76834198167E+02  0.13133557413E+02  0.22194632770E+03  0.17130100649E+03 0.  0.
       24    2    3    3    0    0  0.82115162101E+02  0.12048181965E+03  0.11126817195E+02  0.16543488621E+03  0.77370063978E+02 0.  0.
       -6    2    1    2    0  504 -0.11764418056E+03 -0.76834198167E+02 -0.41424830161E+02  0.22669636390E+03  0.17300744962E+03 0.  0.
      -24    2    5    5    0    0 -0.60271149465E+02  0.66448046830E+01  0.27852465442E+02  0.10388821148E+03  0.79625597433E+02 0.  0.
        5    1    3    3  501    0  0.35529018456E+02 -0.43647621483E+02  0.20067402179E+01  0.56511441495E+02  0.47000000000E+01 0. -1.
      -13    1    4    4    0    0  0.68003115485E+02  0.65942432079E+02 -0.25676283513E+02  0.98143260590E+02  0.00000000000E+00 0.  1.
       14    1    4    4    0    0  0.14112046616E+02  0.54539387571E+02  0.36803100708E+02  0.67291625616E+02  0.00000000000E+00 0. -1.
       -5    1    5    5    0  504 -0.57373031092E+02 -0.83479002850E+02 -0.69277295603E+02  0.12280815242E+03  0.47000000000E+01 0.  1.
        1    1    6    6  502    0  0.18543813236E+02  0.10248939674E+02  0.58516675990E+01  0.21980804978E+02  0.00000000000E+00 0. -1.
       -2    1    6    6    0  502 -0.78814962701E+02 -0.36041349910E+01  0.22000797843E+02  0.81907406504E+02  0.00000000000E+00 0.  1.
</event>
<event>
12   0  0.1523332E-01  0.1887206E+03  0.7957747E-01  0.1165528E+00
       21   -1    0    0  501  503  0.00000000000E+00  0.00000000000E+00  0.28552844365E+03  0.28552844365E+03  0.00000000000E+00 0.  1.
       21   -1    0    0  503  504  0.00000000000E+00  0.00000000000E+00 -0.11705861510E+03  0.11705861510E+03  0.00000000000E+00 0.  1.
        6    2    1    2  501    0  0.37764935437E+02 -0.15552285789E+02  0.89872838236E+02  0.20902770784E+03  0.18424817950E+03 0.  0.
       24    2    3    3    0    0  0.81485840206E+02  0.24297972643E+02  0.21422247224E+02  0.11843447398E+03  0.79608280486E+02 0.  0.
       -6    2    1    2    0  504 -0.37764935437E+02  0.15552285789E+02  0.78596990313E+02  0.19355935090E+03  0.17210366496E+03 0.  0.
      -24    2    5    5    0    0 -0.10591034794E+02  0.64094403157E+02  0.89345209343E+02  0.13670539548E+03  0.80532826770E+02 0.  0.
        5    1    3    3  501    0 -0.43720904769E+02 -0.39850258432E+02  0.68450591012E+02  0.90593233858E+02  0.47000000000E+01 0. -1.
      -11    1    4    4    0    0 -0.11376803702E+02 -0.51970071249E+01  0.16728343021E+02  0.20887268987E+02  0.00000000000E+00 0.  1.
       12    1    4    4    0    0  0.92862643908E+02  0.29494979768E+02  0.46939042034E+01  0.97547204992E+02  0.00000000000E+00 0. -1.
       -5    1    5    5    0  504 -0.27173900643E+02 -0.48542117368E+02 -0.10748219029E+02  0.56853955421E+02  0.47000000000E+01 0.  1.
        1    1    6    6  502    0 -0.38898912953E+02  0.61968898547E+02  0.75448963895E+02  0.10509907692E+03  0.00000000000E+00 0. -1.
       -2    1    6    6    0  502  0.28307878159E+02  0.21255046102E+01  0.13896245448E+02  0.31606318566E+02  0.00000000000E+00 0.  1.
</event>
<event>
12   0  0.1523332E-01  0.1981653E+03  0.7957747E-01  0.1157489E+00
        2   -1    0    0  502    0  0.00000000000E+00  0.00000000000E+00  0.47153294077E+03  0.47153294077E+03  0.00000000000E+00 0.  1.
       -2   -1    0    0    0  501  0.00000000000E+00  0.00000000000E+00 -0.95723719561E+02  0.95723719561E+02  0.00000000000E+00 0. -1.
        6    2    1    2  502    0  0.56330210402E+02 -0.82149216763E+02  0.28845583243E+03  0.34883043072E+03  0.16898022285E+03 0.  0.
       24    2    3    3    0    0  0.67605084643E+02 -0.60220245346E+02  0.94804906997E+02  0.15355940497E+03  0.79972464289E+02 0.  0.
       -6    2    1    2    0  501 -0.56330210402E+02  0.82149216763E+02  0.87353388784E+02  0.21842622962E+03  0.17366006114E+03 0.  0.
      -24    2    5    5    0    0  0.31932008918E+02  0.71456774573E+02  0.42555866244E+02  0.11875950646E+03  0.78530852515E+02 0.  0.
        5    1    3    3  502    0 -0.11274874241E+02 -0.21928971417E+02  0.19365092543E+03  0.19527102575E+03  0.47000000000E+01 0. -1.
      -11    1    4    4    0    0  0.68592321105E+02 -0.59528639776E+02  0.10754412245E+03  0.14076328975E+03  0.00000000000E+00 0.  1.
       12    1    4    4    0    0 -0.98723646165E+00 -0.69160557007E+00 -0.12739215457E+02  0.12796115214E+02  0.00000000000E+00 0. -1.
       -5    1    5    5    0  501 -0.88262219321E+02  0.10692442190E+02  0.44797522540E+02  0.99666723158E+02  0.47000000000E+01 0.  1.
        3    1    6    6  503    0  0.16934299000E+02  0.37808571062E+02 -0.20122819293E+02  0.46056339245E+02  0.00000000000E+00 0. -1.
       -4    1    6    6    0  503  0.14997709919E+02  0.33648203511E+02  0.62678685537E+02  0.72703167214E+02  0.00000000000E+00 0.  1.
</event>
<event>
12   0  0.1523332E-01  0.2161534E+03  0.7957747E-01  0.1143457E+00
        2   -1    0    0  502    0  0.00000000000E+00  0.00000000000E+00  0.10569165714E+04  0.10569165714E+04  0.00000000000E+00 0. -1.
       -2   -1    0    0    0  501  0.00000000000E+00  0.00000000000E+00 -0.44231794739E+02  0.44231794739E+02  0.00000000000E+00 0.  1.
        6    2    1    2  502    0  0.10833194024E+03  0.71168814758E+02  0.51898854027E+03  0.56210796415E+03  0.17267150595E+03 0.  0.
       24    2    3    3    0    0  0.94310119573E+02 -0.14836905159E+02  0.35499858988E+03  0.37634362651E+03  0.80597729421E+02 0.  0.
       -6    2    1    2    0  501 -0.10833194024E+03 -0.71168814758E+02  0.49369623640E+03  0.53904040199E+03  0.17328523213E+03 0.  0.
      -24    2    5    5    0    0 -0.14110301600E+03 -0.75543502292E+02  0.44187273976E+03  0.47738939955E+03  0.83858445013E+02 0.  0.
        5    1    3    3  502    0  0.14021820663E+02  0.86005719917E+02  0.16398995038E+03  0.18576433764E+03  0.47000000000E+01 0. -1.
      -11    1    4    4    0    0  0.11577461014E+02 -0.33043001992E+02  0.60472572683E+02  0.69877103769E+02  0.00000000000E+00 0.  1.
       12    1    4    4    0    0  0.82732658559E+02  0.18206096833E+02  0.29452601720E+03  0.30646652274E+03  0.00000000000E+00 0. -1.
       -5    1    5    5    0  501  0.32771075762E+02  0.43746875336E+01  0.51823496639E+02  0.61651002437E+02  0.47000000000E+01 0.  1.
        1    1    6    6  503    0 -0.46499359266E+02  0.71018707959E+01  0.19250190176E+03  0.19816561045E+03  0.00000000000E+00 0. -1.
       -2    1    6    6    0  503 -0.94603656731E+02 -0.82645373087E+02  0.24937083799E+03  0.27922378910E+03  0.00000000000E+00 0.  1.
</event>
<event>
12   0  0.1523332E-01  0.2486025E+03  0.7957747E-01  0.1121570E+00
       21   -1    0    0  504  503  0.00000000000E+00  0.00000000000E+00  0.28546492463E+03  0.28546492463E+03  0.00000000000E+00 0.  1.
       21   -1    0    0  501  504  0.00000000000E+00  0.00000000000E+00 -0.21681321562E+03  0.21681321562E+03  0.00000000000E+00 0. -1.
        6    2    1    2  501    0 -0.77373909892E+02  0.16083951733E+03  0.23630763381E+02  0.24972311323E+03  0.17305244302E+03 0.  0.
       24    2    3    3    0    0 -0.36832072420E+01  0.12529060941E+02  0.24304065774E+02  0.84046155065E+02  0.79388444905E+02 0.  0.
       -6    2    1    2    0  503  0.77373909892E+02 -0.16083951733E+03  0.45020945631E+02  0.25255502702E+03  0.17291929869E+03 0.  0.
      -24    2    5    5    0    0  0.85529571103E+02 -0.90611595270E+02 -0.27797578862E+02  0.15095235306E+03  0.80548983688E+02 0.  0.
        5    1    3    3  501    0 -0.73690702650E+02  0.14831045639E+03 -0.67330239276E+00  0.16567695816E+03  0.47000000000E+01 0. -1.
        2    1    4    4  502    0 -0.34433533556E+02  0.39990024965E+01  0.36077138737E+02  0.50032191572E+02  0.00000000000E+00 0. -1.
       -1    1    4    4    0  502  0.30750326314E+02  0.85300584445E+01 -0.11773072963E+02  0.34013963492E+02  0.00000000000E+00 0.  1.
       -5    1    5    5    0  503 -0.81556612110E+01 -0.70227922056E+02  0.72818524493E+02  0.10160267396E+03  0.47000000000E+01 0.  1.
       11    1    6    6    0    0  0.80698727684E+02 -0.94290789408E+02 -0.16614633417E+01  0.12412009538E+03  0.00000000000E+00 0. -1.
      -12    1    6    6    0    0  0.48308434184E+01  0.36791941374E+01 -0.26136115520E+02  0.26832257679E+02  0.00000000000E+00 0.  1.
</event>
<event>
12   0  0.1523332E-01  0.1832097E+03  0.7957747E-01  0.1170461E+00
       21   -1    0    0  504  503  0.00000000000E+00  0.00000000000E+00  0.16385581832E+03  0.16385581832E+03  0.00000000000E+00 0.  1.
       21   -1    0    0  501  504  0.00000000000E+00  0.00000000000E+00 -0.24683953851E+03  0.24683953851E+03  0.00000000000E+00 0.  1.
        6    2    1    2  501    0 -0.26002131498E+02 -0.54011574340E+02 -0.12673400923E+03  0.22233435647E+03  0.17256215103E+03 0.  0.
       24    2    3    3    0    0 -0.29546984161E+02  0.34120139245E+02 -0.76130047332E+02  0.12053742194E+03  0.81830787644E+02 0.  0.
       -6    2    1    2    0  503  0.26002131498E+02  0.54011574340E+02  0.43750289049E+02  0.18836100035E+03  0.17312543908E+03 0.  0.
      -24    2    5    5    0    0 -0.42231351885E+02  0.35131708296E+02  0.61660653607E+02  0.11518225511E+03  0.80294406280E+02 0.  0.
        5    1    3    3  501    0  0.35448526635E+01 -0.88131713585E+02 -0.50603961902E+02  0.10179693453E+03  0.47000000000E+01 0. -1.
        4    1    4    4  502    0 -0.83825357000E+01  0.58746534710E+02 -0.59584673280E+02  0.84093730653E+02  0.00000000000E+00 0. -1.
       -3    1    4    4    0  502 -0.21164448461E+02 -0.24626395465E+02 -0.16545374052E+02  0.36443691289E+02  0.00000000000E+00 0.  1.
       -5    1    5    5    0  503  0.68233483383E+02  0.18879866044E+02 -0.17910364559E+02  0.73178745241E+02  0.47000000000E+01 0.  1.
       13    1    6    6    0    0 -0.59753101276E+02  0.77914825486E+01  0.22531546551E+02  0.64333590778E+02  0.00000000000E+00 0. -1.
      -14    1    6    6    0    0  0.17521749391E+02  0.27340225748E+02  0.39129107056E+02  0.50848664335E+02  0.00000000000E+00 0.  1.
</event>
<event>
12   0  0.1523332E-01  0.2611689E+03  0.7957747E-01  0.1114052E+00
        4   -1    0    0  502    0  0.00000000000E+00  0.00000000000E+00  0.46370088604E+03  0.46370088604E+03  0.00000000000E+00 0.  1.
       -4   -1    0    0    0  501  0.00000000000E+00  0.00000000000E+00 -0.14795444761E+03  0.14795444761E+03  0.00000000000E+00 0. -1.
        6    2    1    2  502    0  0.10978550951E+03  0.16123086043E+03  0.18160480095E+03  0.31874999480E+03  0.17485138547E+03 0.  0.
       24    2    3    3    0    0  0.13341017463E+03  0.15692822761E+03  0.11806994514E+03  0.25066618355E+03  0.80425619777E+02 0.  0.
       -6    2    1    2    0  501 -0.10978550951E+03 -0.16123086043E+03  0.13414163748E+03  0.29290533885E+03  0.17248568104E+03 0.  0.
      -24    2    5    5    0    0 -0.47055775921E+02 -0.13903386162E+03  0.30352906840E+02  0.16952820628E+03  0.79207657748E+02 0.  0.
        5    1    3    3  502    0 -0.23624665114E+02  0.43026328213E+01  0.63534855810E+02  0.68083811246E+02  0.47000000000E+01 0. -1.
      -11    1    4    4    0    0  0.93919648166E+02  0.14614073123E+03  0.11750100185E+03  0.20972481749E+03  0.00000000000E+00 0.  1.
       12    1    4    4    0    0  0.39490526463E+02  0.10787496382E+02  0.56894328626E+00  0.40941366061E+02  0.00000000000E+00 0. -1.
       -5    1    5    5    0  501 -0.62729733594E+02 -0.22196998812E+02  0.10378873064E+03  0.12337713257E+03  0.47000000000E+01 0.  1.
        3    1    6    6  503    0 -0.40350122704E+02 -0.15921276213E+02  0.10685452554E+02  0.44674358806E+02  0.00000000000E+00 0. -1.
       -4    1    6    6    0  503 -0.67056532174E+01 -0.12311258540E+03  0.19667454286E+02  0.12485384747E+03  0.00000000000E+00 0.  1.
</event>
<event>
12   0  0.1523332E-01  0.2597774E+03  0.7957747E-01  0.1114861E+00
       21   -1    0    0  501  503  0.00000000000E+00  0.00000000000E+00  0.36682511265E+03  0.36682511265E+03  0.00000000000E+00 0. -1.
       21   -1    0    0  503  504  0.00000000000E+00  0.00000000000E+00 -0.18273340701E+03  0.18273340701E+03  0.00000000000E+00 0.  1.
        6    2    1    2  501    0  0.42518125940E+02  0.18617801528E+03  0.83917821703E+02  0.27299542137E+03  0.17610864511E+03 0.  0.
       24    2    3    3    0    0  0.24156631304E+02  0.20652596663E+02  0.58362011830E+02  0.10443979817E+03  0.80569686802E+02 0.  0.
       -6    2    1    2    0  504 -0.42518125940E+02 -0.18617801528E+03  0.10017388394E+03  0.27656309829E+03  0.17315396589E+03 0.  0.
      -24    2    5    5    0    0 -0.50514162642E+02 -0.37762174036E+02  0.21273106784E+02  0.10822230950E+03  0.85333819703E+02 0.  0.
        5    1    3    3  501    0  0.18361494635E+02  0.16552541862E+03  0.25555809872E+02  0.16855562320E+03  0.47000000000E+01 0. -1.
      -11    1    4    4    0    0 -0.19534934075E+02  0.13146670337E+02 -0.77944932117E+01  0.24803280321E+02  0.00000000000E+00 0.  1.
       12    1    4    4    0    0  0.43691565379E+02  0.75059263260E+01  0.66156505042E+02  0.79636517846E+02  0.00000000000E+00 0. -1.
       -5    1    5    5    0  504  0.79960367025E+01 -0.14841584125E+03  0.78900777152E+02  0.16834078879E+03  0.47000000000E+01 0.  1.
        1    1    6    6  502    0  0.22283547963E+02 -0.15530678645E+02  0.16878743371E+02  0.31978906591E+02  0.00000000000E+00 0. -1.
       -2    1    6    6    0  502 -0.72797710605E+02 -0.22231495391E+02  0.43943634130E+01  0.76243402905E+02  0.00000000000E+00 0.  1.
</event>
<event>
12   0  0.1523332E-01  0.1899834E+03  0.7957747E-01  0.1164423E+00
        2   -1    0    0  502    0  0.00000000000E+00  0.00000000000E+00  0.12684849799E+03  0.12684849799E+03  0.00000000000E+00 0. -1.
       -2   -1    0    0    0  501  0.00000000000E+00  0.00000000000E+00 -0.33990147581E+03  0.33990147581E+03  0.00000000000E+00 0.  1.
        6    2    1    2  502    0 -0.93247752121E+02 -0.19777605476E+01 -0.20327900416E+03  0.28249540532E+03  0.17257533336E+03 0.  0.
       24    2    3    3    0    0 -0.49243081715E+02  0.60547645475E+02 -0.79385430730E+02  0.13683297038E+03  0.79563287396E+02 0.  0.
       -6    2    1    2    0  501  0.93247752121E+02  0.19777605476E+01 -0.97739736472E+01  0.18425456848E+03  0.15860378505E+03 0.  0.
      -24    2    5    5    0    0  0.10327032436E+03 -0.32308340184E+02 -0.37047887972E+02  0.13906668227E+03  0.79110096540E+02 0.  0.
        5    1    3    3  502    0 -0.44004670406E+02 -0.62525406022E+02 -0.12389357344E+03  0.14566243495E+03  0.47000000000E+01 0. -1.
      -11    1    4    4    0    0 -0.25720485504E+02  0.47729744646E+02 -0.92336708577E+02  0.10707819409E+03  0.00000000000E+00 0.  1.
       12    1    4    4    0    0 -0.23522596212E+02  0.12817900829E+02  0.12951277847E+02  0.29754776290E+02  0.00000000000E+00 0. -1.
       -5    1    5    5    0  501 -0.10022572237E+02  0.34286100732E+02  0.27273914325E+02  0.45187886211E+02  0.47000000000E+01 0.  1.
        3    1    6    6  503    0  0.92982239367E+02  0.70198416093E+01 -0.22835323409E+02  0.96002223980E+02  0.00000000000E+00 0. -1.
       -4    1    6    6    0  503  0.10288084992E+02 -0.39328181794E+02 -0.14212564563E+02  0.43064458286E+02  0.00000000000E+00 0.  1.
</event>
<event>
12   0  0.1523332E-01  0.1820139E+03  0.7957747E-01  0.1171557E+00
       21   -1    0    0  504  503  0.00000000000E+00  0.00000000000E+00  0.71319355841E+02  0.71319355841E+02  0.00000000000E+00 0.  1.
       21   -1    0    0  501  504  0.00000000000E+00  0.00000000000E+00 -0.48712975663E+03  0.48712975663E+03  0.00000000000E+00 0.  1.
        6    2    1    2  501    0 -0.39805629377E+01  0.54503576823E+02 -0.14505595900E+03  0.23274510447E+03  0.17361615031E+03 0.  0.
       24    2    3    3    0    0  0.49777952821E+02  0.25753628168E+02 -0.14103242242E+03  0.17146854769E+03  0.79813687563E+02 0.  0.
       -6    2    1    2    0  503  0.39805629377E+01 -0.54503576823E+02 -0.27075444179E+03  0.32570400800E+03  0.17259388259E+03 0.  0.
      -24    2    5    5    0    0  0.48419429578E+02 -0.22101513205E+02 -0.22668176505E+03  0.25506975689E+03  0.10412991993E+03 0.  0.
        5    1    3    3  501    0 -0.53758515759E+02  0.28749948655E+02 -0.40235365732E+01  0.61276556780E+02  0.47000000000E+01 0. -1.
      -13    1    4    4    0    0  0.58494632798E+02  0.23617186365E+02 -0.51355328458E+02  0.81343489715E+02  0.00000000000E+00 0.  1.
       14    1    4    4    0    0 -0.87166799768E+01  0.21364418037E+01 -0.89677093966E+02  0.90125057979E+02  0.00000000000E+00 0. -1.
       -5    1    5    5    0  503 -0.44438866641E+02 -0.32402063617E+02 -0.44072676745E+02  0.70634251114E+02  0.47000000000E+01 0.  1.
        3    1    6    6  502    0  0.36576608208E+02  0.28621028280E+02 -0.40118553458E+02  0.61371897962E+02  0.00000000000E+00 0. -1.
       -4    1    6    6    0  502  0.11842821370E+02 -0.50722541485E+02 -0.18656321159E+03  0.19369785892E+03  0.00000000000E+00 0.  1.
</event>
<event>
12   0  0.1523332E-01  0.1747077E+03  0.7957747E-01  0.1178458E+00
       21   -1    0    0  501  503  0.00000000000E+00  0.00000000000E+00  0.35743409157E+03  0.35743409157E+03  0.00000000000E+00 0.  1.
       21   -1    0    0  503  504  0.00000000000E+00  0.00000000000E+00 -0.87291939441E+02  0.87291939441E+02  0.00000000000E+00 0.  1.
        6    2    1    2  501    0 -0.21502771470E+02  0.10494734327E+02  0.99054336326E+02  0.20083460757E+03  0.17306146140E+03 0.  0.
       24    2    3    3    0    0 -0.78220232679E+02 -0.12511715808E+02  0.68250002780E+02  0.13215299344E+03  0.80817095739E+02 0.  0.
       -6    2    1    2    0  504  0.21502771470E+02 -0.10494734327E+02  0.17108781580E+03  0.24389142344E+03  0.17216119505E+03 0.  0.
      -24    2    5    5    0    0 -0.44455479963E+02 -0.90918474885E+01  0.14541545014E+03  0.17294341866E+03  0.81882974599E+02 0.  0.
        5    1    3    3  501    0  0.56717461209E+02  0.23006450135E+02  0.30804333546E+02  0.68681614127E+02  0.47000000000E+01 0. -1.
        4    1    4    4  502    0 -0.37984203253E+02 -0.62702502017E+01 -0.13522437692E+02  0.40804069105E+02  0.00000000000E+00 0. -1.
       -3    1    4    4    0  502 -0.40236029426E+02 -0.62414656066E+01  0.81772440473E+02  0.91348924338E+02  0.00000000000E+00 0.  1.
       -5    1    5    5    0  504  0.65958251433E+02 -0.14028868385E+01  0.25672365664E+02  0.70948004781E+02  0.47000000000E+01 0.  1.
       11    1    6    6    0    0 -0.11281536569E+01 -0.18652513026E+02 -0.21890754305E+01  0.18814383437E+02  0.00000000000E+00 0. -1.
      -12    1    6    6    0    0 -0.43327326306E+02  0.95606655375E+01  0.14760452557E+03  0.15412903522E+03  0.00000000000E+00 0.  1.
</event>
<event>
12   0  0.1523332E-01  0.2051826E+03  0.7957747E-01  0.1151828E+00
       21   -1    0    0  504  503  0.00000000000E+00  0.00000000000E+00  0.19556927662E+03  0.19556927662E+03  0.00000000000E+00 0.  1.
       21   -1    0    0  501  504  0.00000000000E+00  0.00000000000E+00 -0.20516392518E+03  0.20516392518E+03  0.00000000000E+00 0. -1.
        6    2    1    2  501    0  0.37696245059E+02  0.92992638998E+02 -0.39292894491E+01  0.19547244510E+03  0.16770628992E+03 0.  0.
       24    2    3    3    0    0  0.70837891097E+02  0.10242242513E+03  0.24583151562E+02  0.15050202303E+03  0.80858936502E+02 0.  0.
       -6    2    1    2    0  503 -0.37696245059E+02 -0.92992638998E+02 -0.56653591037E+01  0.20526075670E+03  0.17897274694E+03 0.  0.
      -24    2    5    5    0    0  0.49253176077E+02 -0.33609678595E+02  0.17792168930E+02  0.97284447055E+02  0.74781124052E+02 0.  0.
        5    1    3    3  501    0 -0.33141646038E+02 -0.94297861312E+01 -0.28512441011E+02  0.44970422069E+02  0.47000000000E+01 0. -1.
        2    1    4    4  502    0  0.66338952319E+02  0.29099208185E+02 -0.17559995056E+01  0.72461741947E+02  0.00000000000E+00 0. -1.
       -1    1    4    4    0  502  0.44989387787E+01  0.73323216945E+02  0.26339151068E+02  0.78040281088E+02  0.00000000000E+00 0.  1.
       -5    1    5    5    0  503 -0.86949421136E+02 -0.59382960403E+02 -0.23457528034E+02  0.10797630964E+03  0.47000000000E+01 0.  1.
       13    1    6    6    0    0  0.35407835450E+02 -0.56575907030E+02  0.33510069505E+01  0.66826471664E+02  0.00000000000E+00 0. -1.
      -14    1    6    6    0    0  0.13845340627E+02  0.22966228434E+02  0.14441161980E+02  0.30457975391E+02  0.00000000000E+00 0.  1.
</event>
<event>
12   0  0.1523332E-01  0.1827413E+03  0.7957747E-01  0.1170889E+00
       21   -1    0    0  504  503  0.00000000000E+00  0.00000000000E+00  0.41499061523E+03  0.41499061523E+03  0.00000000000E+00 0.  1.
       21   -1    0    0  501  504  0.00000000000E+00  0.00000000000E+00 -0.33167529646E+03  0.33167529646E+03  0.00000000000E+00 0.  1.
        6    2    1    2  501    0  0.68327548030E+01 -0.60312389212E+02 -0.28361919978E+03  0.33674479637E+03  0.17109335630E+03 0.  0.
       24    2    3    3    0    0  0.33851472548E+02  0.22798358097E+02 -0.10627212728E+03  0.13897856682E+03  0.79721952271E+02 0.  0.
       -6    2    1    2    0  503 -0.68327548030E+01  0.60312389212E+02  0.36693451855E+03  0.40992111532E+03  0.17236620622E+03 0.  0.
      -24    2    5    5    0    0  0.11329198399E+02  0.11478782733E+02  0.66613425952E+02  0.10507783373E+03  0.79648536933E+02 0.  0.
        5    1    3    3  501    0 -0.27018717745E+02 -0.83110747308E+02 -0.17734707250E+03  0.19776622955E+03  0.47000000000E+01 0. -1.
        4    1    4    4  502    0 -0.55360311222E+01  0.37211613474E+02 -0.18990240888E+02  0.42142390380E+02  0.00000000000E+00 0. -1.
       -3    1    4    4    0  502  0.39387503670E+02 -0.14413255378E+02 -0.87281886389E+02  0.96836176440E+02  0.00000000000E+00 0.  1.
       -5    1    5    5    0  503 -0.18161953202E+02  0.48833606479E+02  0.30032109260E+03  0.30484328159E+03  0.47000000000E+01 0.  1.
       11    1    6    6    0    0 -0.21505859769E+02  0.33679942228E+02  0.44027807850E+02  0.59458291069E+02  0.00000000000E+00 0. -1.
      -12    1    6    6    0    0  0.32835058168E+02 -0.22201159494E+02  0.22585618102E+02  0.45619542664E+02  0.00000000000E+00 0.  1.
</event>
<event>
12   0  0.1523332E-01  0.1737671E+03  0.7957747E-01  0.1179374E+00
       21   -1    0    0  504  503  0.00000000000E+00  0.00000000000E+00  0.32265700067E+03  0.32265700067E+03  0.00000000000E+00 0. -1.
       21   -1    0    0  501  504  0.00000000000E+00  0.00000000000E+00 -0.15367940601E+03  0.15367940601E+03  0.00000000000E+00 0. -1.
        6    2    1    2  501    0  0.20929210183E+02  0.77029224701E+01 -0.64557092286E+02  0.18524630599E+03  0.17219526377E+03 0.  0.
       24    2    3    3    0    0 -0.49412235446E+02 -0.82404383739E+01 -0.61282986269E+02  0.11289356245E+03  0.80497690651E+02 0.  0.
       -6    2    1    2    0  503 -0.20929210183E+02 -0.77029224701E+01  0.23353468694E+03  0.29109010069E+03  0.17233000278E+03 0.  0.
      -24    2    5    5    0    0 -0.45128785337E+02  0.20881859204E+02  0.23521122351E+03  0.25330637462E+03  0.79794363512E+02 0.  0.
        5    1    3    3  501    0  0.70341445628E+02  0.15943360844E+02 -0.32741060171E+01  0.72352743544E+02  0.47000000000E+01 0. -1.
      -13    1    4    4    0    0  0.65181968651E+01  0.22434943056E+02  0.14728036350E+01  0.23409030541E+02  0.00000000000E+00 0.  1.
       14    1    4    4    0    0 -0.55930432311E+02 -0.30675381430E+02 -0.62755789904E+02  0.89484531908E+02  0.00000000000E+00 0. -1.
       -5    1    5    5    0  503  0.24199575154E+02 -0.28584781674E+02 -0.16765365637E+01  0.37783726071E+02  0.47000000000E+01 0.  1.
        1    1    6    6  502    0 -0.53366408886E+02 -0.13095742173E+02  0.17769967909E+03  0.18600174195E+03  0.00000000000E+00 0. -1.
       -2    1    6    6    0  502  0.82376235487E+01  0.33977601377E+02  0.57511544420E+02  0.67304632668E+02  0.00000000000E+00 0.  1.
</event>
<event>
12   0  0.1523332E-01  0.1788308E+03  0.7957747E-01  0.1174519E+00
       -1   -1    0    0    0  501  0.00000000000E+00  0.00000000000E+00  0.12230051623E+03  0.12230051623E+03  0.00000000000E+00 0.  1.
        1   -1    0    0  502    0  0.00000000000E+00  0.00000000000E+00 -0.26726260864E+03  0.26726260864E+03  0.00000000000E+00 0. -1.
        6    2    1    2  502    0 -0.17992104840E+02 -0.36053311491E+02 -0.44030975249E+02  0.18459001826E+03  0.17467452864E+03 0.  0.
       24    2    3    3    0    0  0.15112327054E+02 -0.70851255346E+02 -0.33697557256E+02  0.13523751240E+03  0.10911176188E+03 0.  0.
       -6    2    1    2    0  501  0.17992104840E+02  0.36053311491E+02 -0.10093111716E+03  0.20497310662E+03  0.17379104384E+03 0.  0.
      -24    2    5    5    0    0  0.43882636086E+02  0.81955102960E+01 -0.12614314936E+03  0.15910249224E+03  0.86073554407E+02 0.  0.
        5    1    3    3  502    0 -0.33104431894E+02  0.34797943855E+02 -0.10333417993E+02  0.49352505863E+02  0.47000000000E+01 0. -1.
        2    1    4    4  503    0  0.60238312745E+02 -0.22037599236E+02 -0.21506796260E+02  0.67652438151E+02  0.00000000000E+00 0. -1.
       -1    1    4    4    0  503 -0.45125985691E+02 -0.48813656110E+02 -0.12190760996E+02  0.67585074247E+02  0.00000000000E+00 0.  1.
       -5    1    5    5    0  501 -0.25890531246E+02  0.27857801195E+02  0.25212032196E+02  0.45870614374E+02  0.47000000000E+01 0.  1.
       13    1    6    6    0    0  0.68416002562E+01  0.30492801520E+02 -0.10762302643E+03  0.11206843560E+03  0.00000000000E+00 0. -1.
      -14    1    6    6    0    0  0.37041035829E+02 -0.22297291224E+02 -0.18520122927E+02  0.47034056645E+02  0.00000000000E+00 0.  1.
</event>
<event>
12   0  0.1523332E-01  0.1831669E+03  0.7957747E-01  0.1170500E+00
       21   -1    0    0  501  503  0.00000000000E+00  0.00000000000E+00  0.49896532796E+02  0.49896532796E+02  0.00000000000E+00 0.  1.
       21   -1    0    0  503  504  0.00000000000E+00  0.00000000000E+00 -0.62013578873E+03  0.62013578873E+03  0.00000000000E+00 0.  1.
        6    2    1    2  501    0  0.38411936360E+02  0.36433736691E+02 -0.31030632262E+03  0.35204609514E+03  0.15761835307E+03 0.  0.
       24    2    3    3    0    0  0.38480908835E+02 -0.17253216811E+02 -0.27517317424E+03  0.28771319650E+03  0.72664666669E+02 0.  0.
       -6    2    1    2    0  504 -0.38411936360E+02 -0.36433736691E+02 -0.25993293332E+03  0.31798622638E+03  0.17534884180E+03 0.  0.
      -24    2    5    5    0    0  0.14885931681E+02 -0.81198678334E+02 -0.16945728565E+03  0.20373870755E+03  0.77323172269E+02 0.  0.
        5    1    3    3  501    0 -0.68972474836E-01  0.53686953502E+02 -0.35133148378E+02  0.64332898648E+02  0.47000000000E+01 0. -1.
      -13    1    4    4    0    0  0.47312050841E+02 -0.31704177199E+01 -0.89393129413E+02  0.10119097435E+03  0.00000000000E+00 0.  1.
       14    1    4    4    0    0 -0.88311420064E+01 -0.14082799092E+02 -0.18578004483E+03  0.18652222215E+03  0.00000000000E+00 0. -1.
       -5    1    5    5    0  504 -0.53297868041E+02  0.44764941644E+02 -0.90475647667E+02  0.11424751883E+03  0.47000000000E+01 0.  1.
        1    1    6    6  502    0  0.37648202445E+02 -0.40630262442E+02 -0.46656927780E+02  0.72422885080E+02  0.00000000000E+00 0. -1.
       -2    1    6    6    0  502 -0.22762270764E+02 -0.40568415892E+02 -0.12280035787E+03  0.13131582247E+03  0.00000000000E+00 0.  1.
</event>
<event>
12   0  0.1523332E-01  0.2027172E+03  0.7957747E-01  0.1153788E+00
       21   -1    0    0  501  503  0.00000000000E+00  0.00000000000E+00  0.60306319355E+03  0.60306319355E+03  0.00000000000E+00 0. -1.
       21   -1    0    0  503  504  0.00000000000E+00  0.00000000000E+00 -0.10113028449E+03  0.10113028449E+03  0.00000000000E+00 0.  1.
        6    2    1    2  501    0  0.74343567609E+02 -0.72746253652E+02  0.45275706351E+03  0.49559694500E+03  0.17265106392E+03 0.  0.
       24    2    3    3    0    0  0.69479052739E+02 -0.10906796061E+03  0.27185203240E+03  0.31095770166E+03  0.77897406242E+02 0.  0.
       -6    2    1    2    0  504 -0.74343567609E+02  0.72746253652E+02  0.49175845552E+02  0.20859653304E+03  0.17399789179E+03 0.  0.
      -24    2    5    5    0    0  0.10272076776E+02  0.77302817141E+02  0.10084533784E+01  0.11101191738E+03  0.79002453903E+02 0.  0.
        5    1    3    3  501    0  0.48645148699E+01  0.36321706960E+02  0.18090503110E+03  0.18463924334E+03  0.47000000000E+01 0. -1.
        2    1    4    4  502    0  0.74019243202E+02 -0.60890824994E+02  0.22032778797E+03  0.24027250173E+03  0.00000000000E+00 0. -1.
       -1    1    4    4    0  502 -0.45401904626E+01 -0.48177135617E+02  0.51524244429E+02  0.70685199934E+02  0.00000000000E+00 0.  1.
       -5    1    5    5    0  504 -0.84615644385E+02 -0.45565634895E+01  0.48167392173E+02  0.97584615664E+02  0.47000000000E+01 0.  1.
       11    1    6    6    0    0 -0.85177703202E+01  0.72028832437E+02  0.27962657859E+02  0.77734261095E+02  0.00000000000E+00 0. -1.
      -12    1    6    6    0    0  0.18789847096E+02  0.52739847046E+01 -0.26954204481E+02  0.33277656284E+02  0.00000000000E+00 0.  1.
</event>
<event>
12   0  0.1523332E-01  0.1835687E+03  0.7957747E-01  0.1170134E+00
       21   -1    0    0  504  503  0.00000000000E+00  0.00000000000E+00  0.43286130689E+03  0.43286130689E+03  0.00000000000E+00 0. -1.
       21   -1    0    0  501  504  0.00000000000E+00  0.00000000000E+00 -0.26148527773E+03  0.26148527773E+03  0.00000000000E+00 0. -1.
        6    2    1    2  501    0 -0.26213799525E+02  0.52830046918E+02 -0.20567616929E+03  0.27498299286E+03  0.17272748074E+03 0.  0.
       24    2    3    3    0    0  0.34332990081E+02  0.60583322573E+02 -0.79901880827E+02  0.13509986788E+03  0.83776909458E+02 0.  0.
       -6    2    1    2    0  503  0.26213799525E+02 -0.52830046918E+02  0.37705219845E+03  0.41936359176E+03  0.17383694831E+03 0.  0.
      -24    2    5    5    0    0 -0.80768378339E+01 -0.21644759170E+01  0.75374454295E+02  0.11150908195E+03  0.81749903554E+02 0.  0.
        5    1    3    3  501    0 -0.60546789606E+02 -0.77532756555E+01 -0.12577428847E+03  0.13988312498E+03  0.47000000000E+01 0. -1.
        4    1    4    4  502    0  0.34602455770E+02  0.25027915018E+02 -0.88722872467E+02  0.98465600970E+02  0.00000000000E+00 0. -1.
       -3    1    4    4    0  502 -0.26946568915E+00  0.35555407556E+02  0.88209916406E+01  0.36634266906E+02  0.00000000000E+00 0.  1.
       -5    1    5    5    0  503  0.34290637359E+02 -0.50665571001E+02  0.30167774415E+03  0.30785450982E+03  0.47000000000E+01 0.  1.
       11    1    6    6    0    0 -0.23405783734E+02 -0.36799289886E+02  0.47482705568E+02  0.64471899122E+02  0.00000000000E+00 0. -1.
      -12    1    6    6    0    0  0.15328945901E+02  0.34634813969E+02  0.27891748728E+02  0.47037182826E+02  0.00000000000E+00 0.  1.
</event>
<event>
12   0  0.1523332E-01  0.2500088E+03  0.7957747E-01  0.1120705E+00
       21   -1    0    0  501  503  0.00000000000E+00  0.00000000000E+00  0.19775544060E+03  0.19775544060E+03  0.00000000000E+00 0.  1.
       21   -1    0    0  503  504  0.00000000000E+00  0.00000000000E+00 -0.38790346996E+03  0.38790346996E+03  0.00000000000E+00 0. -1.
        6    2    1    2  501    0  0.14238369600E+03 -0.11080777543E+03  0.33673132896E+02  0.25226626343E+03  0.17306908392E+03 0.  0.
       24    2    3    3    0    0  0.65190108034E+02 -0.56112165717E+02  0.83848978364E+02  0.14507407523E+03  0.81348084204E+02 0.  0.
       -6    2    1    2    0  504 -0.14238369600E+03  0.11080777543E+03 -0.22382116226E+03  0.33339264713E+03  0.16882909850E+03 0.  0.
      -24    2    5    5    0    0 -0.95927535623E+02  0.14337504739E+03 -0.17797598737E+03  0.26029906260E+03  0.79508827201E+02 0.  0.
        5    1    3    3  501    0  0.77193587962E+02 -0.54695609712E+02 -0.50175845468E+02  0.10719218821E+03  0.47000000000E+01 0. -1.
        2    1    4    4  502    0 -0.17592436493E+02 -0.23494298326E+02  0.22827733363E+02  0.37183077953E+02  0.00000000000E+00 0. -1.
       -1    1    4    4    0  502  0.82782544527E+02 -0.32617867392E+02  0.61021245001E+02  0.10789099728E+03  0.00000000000E+00 0.  1.
       -5    1    5    5    0  504 -0.46456160373E+02 -0.32567271956E+02 -0.45845174887E+02  0.73093584531E+02  0.47000000000E+01 0.  1.
       13    1    6    6    0    0 -0.86192862628E+02  0.58301147344E+02 -0.10438446171E+03  0.14739182201E+03  0.00000000000E+00 0. -1.
      -14    1    6    6    0    0 -0.97346729956E+01  0.85073900041E+02 -0.73591525661E+02  0.11290724058E+03  0.00000000000E+00 0.  1.
</event>
<event>
12   0  0.1523332E-01  0.2122562E+03  0.7957747E-01  0.1146367E+00
       21   -1    0    0  504  503  0.00000000000E+00  0.00000000000E+00  0.34270357030E+03  0.34270357030E+03  0.00000000000E+00 0. -1.
       21   -1    0    0  501  504  0.00000000000E+00  0.00000000000E+00 -0.23273891556E+03  0.23273891556E+03  0.00000000000E+00 0.  1.
        6    2    1    2  501    0  0.44118748464E+02  0.11449287887E+03 -0.13506199139E+03  0.25126546594E+03  0.17273537443E+03 0.  0.
       24    2    3    3    0    0  0.57273281993E+02  0.12848373914E+02 -0.29487980645E+02  0.10404926818E+03  0.80693244222E+02 0.  0.
       -6    2    1    2    0  503 -0.44118748464E+02 -0.11449287887E+03  0.24502664613E+03  0.32417701992E+03  0.17319815140E+03 0.  0.
      -24    2    5    5    0    0  0.23117923979E+02 -0.59272667407E+02  0.20299115417E+03  0.22743450362E+03  0.80457176528E+02 0.  0.
        5    1    3    3  501    0 -0.13154533530E+02  0.10164450495E+03 -0.10557401074E+03  0.14721619776E+03  0.47000000000E+01 0. -1.
        4    1    4    4  502    0  0.61812193265E+02 -0.21220475701E+02 -0.17602897874E+02  0.67682478078E+02  0.00000000000E+00 0. -1.
       -3    1    4    4    0  502 -0.45389112716E+01  0.34068849615E+02 -0.11885082771E+02  0.36366790099E+02  0.00000000000E+00 0.  1.
       -5    1    5    5    0  503 -0.67236672443E+02 -0.55220211461E+02  0.42035491964E+02  0.96742516298E+02  0.47000000000E+01 0.  1.
       11    1    6    6    0    0  0.97457538950E+01 -0.61507438154E+02  0.69749011205E+02  0.93504380813E+02  0.00000000000E+00 0. -1.
      -12    1    6    6    0    0  0.13372170084E+02  0.22347707470E+01  0.13324214296E+03  0.13393012280E+03  0.00000000000E+00 0.  1.
</event>
<event>
12   0  0.1523332E-01  0.3067857E+03  0.7957747E-01  0.1090195E+00
       21   -1    0    0  504  503  0.00000000000E+00  0.00000000000E+00  0.12166680246E+04  0.12166680246E+04  0.00000000000E+00 0.  1.
       21   -1    0    0  501  504  0.00000000000E+00  0.00000000000E+00 -0.77667234995E+02  0.77667234995E+02  0.00000000000E+00 0.  1.
        6    2    1    2  501    0 -0.21037645482E+01 -0.25389668694E+03  0.64936519652E+03  0.71818703825E+03  0.17219033072E+03 0.  0.
       24    2    3    3    0    0  0.44567953321E+02 -0.23504011721E+03  0.49457259575E+03  0.55534767346E+03  0.81109967282E+02 0.  0.
       -6    2    1    2    0  503  0.21037645482E+01  0.25389668694E+03  0.48963559309E+03  0.57614822135E+03  0.16654070217E+03 0.  0.
      -24    2    5    5    0    0 -0.54240996275E+02  0.10160081224E+03  0.26092383350E+03  0.29561315314E+03  0.77724376440E+02 0.  0.
        5    1    3    3  501    0 -0.46671717869E+02 -0.18856569729E+02  0.15479260077E+03  0.16283936479E+03  0.47000000000E+01 0. -1.
        2    1    4    4  502    0  0.39975696551E+02 -0.38065469624E+02  0.96114085016E+02  0.11083751004E+03  0.00000000000E+00 0. -1.
       -1    1    4    4    0  502  0.45922567700E+01 -0.19697464759E+03  0.39845851073E+03  0.44451016343E+03  0.00000000000E+00 0.  1.
       -5    1    5    5    0  503  0.56344760824E+02  0.15229587470E+03  0.22871175959E+03  0.28053506821E+03  0.47000000000E+01 0.  1.
       11    1    6    6    0    0 -0.42438996155E+02  0.93609130592E+02  0.13906874441E+03  0.17292730668E+03  0.00000000000E+00 0. -1.
      -12    1    6    6    0    0 -0.11802000120E+02  0.79916816488E+01  0.12185508909E+03  0.12268584645E+03  0.00000000000E+00 0.  1.
</event>
<event>
12   0  0.1523332E-01  0.2104552E+03  0.7957747E-01  0.1147735E+00
       21   -1    0    0  504  503  0.00000000000E+00  0.00000000000E+00  0.29194303843E+03  0.29194303843E+03  0.00000000000E+00 0. -1.
       21   -1    0    0  501  504  0.00000000000E+00  0.00000000000E+00 -0.16981145337E+03  0.16981145337E+03  0.00000000000E+00 0. -1.
        6    2    1    2  501    0 -0.11735487578E+03 -0.13125165841E+02  0.13899252265E+03  0.25062495845E+03  0.17189971378E+03 0.  0.
       24    2    3    3    0    0 -0.48851721164E+02 -0.35227742858E+01 -0.24369046562E+00  0.95081713150E+02  0.81495841558E+02 0.  0.
       -6    2    1    2    0  503  0.11735487578E+03  0.13125165841E+02 -0.16860937599E+02  0.21112953335E+03  0.17420376514E+03 0.  0.
      -24    2    5    5    0    0 -0.90156700463E+01 -0.54519526327E+01 -0.13079490173E+02  0.83258451679E+02  0.81546861490E+02 0.  0.
        5    1    3    3  501    0 -0.68503154614E+02 -0.96023915553E+01  0.13923621312E+03  0.15554324530E+03  0.47000000000E+01 0. -1.
      -13    1    4    4    0    0 -0.40339336415E+02  0.31588309948E+02 -0.18663281453E+02  0.54528904834E+02  0.00000000000E+00 0.  1.
       14    1    4    4    0    0 -0.85123847484E+01 -0.35111084234E+02  0.18419590988E+02  0.40552808316E+02  0.00000000000E+00 0. -1.
       -5    1    5    5    0  503  0.12637054582E+03  0.18577118474E+02 -0.37814474262E+01  0.12787108167E+03  0.47000000000E+01 0.  1.
        3    1    6    6  502    0  0.42725294319E+00 -0.39518692034E+02  0.10342724962E+02  0.40851946401E+02  0.00000000000E+00 0. -1.
       -4    1    6    6    0  502 -0.94429229895E+01  0.34066739401E+02 -0.23422215135E+02  0.42406505277E+02  0.00000000000E+00 0.  1.
</event>
<event>
12   0  0.1523332E-01  0.2013936E+03  0.7957747E-01  0.1154853E+00
       21   -1    0    0  501  503  0.00000000000E+00  0.00000000000E+00  0.10918286089E+03  0.10918286089E+03  0.00000000000E+00 0. -1.
       21   -1    0    0  503  504  0.00000000000E+00  0.00000000000E+00 -0.37488342681E+03  0.37488342681E+03  0.00000000000E+00 0. -1.
        6    2    1    2  501    0 -0.77610943939E+02  0.67467643554E+02 -0.10925833253E+03  0.22912171725E+03  0.17315899210E+03 0.  0.
       24    2    3    3    0    0  0.19447491910E+02  0.20290046402E+01 -0.34234980326E+02  0.90006122123E+02  0.80911966607E+02 0.  0.
       -6    2    1    2    0  504  0.77610943939E+02 -0.67467643554E+02 -0.15644223340E+03  0.25494457046E+03  0.17305265115E+03 0.  0.
      -24    2    5    5    0    0  0.97078260898E+02  0.20543936572E+01 -0.78061663795E+02  0.14827736004E+03  0.80399893488E+02 0.  0.
        5    1    3    3  501    0 -0.97058435849E+02  0.65438638914E+02 -0.75023352201E+02  0.13911559513E+03  0.47000000000E+01 0. -1.
        4    1    4    4  502    0  0.51105627854E+02  0.29857384552E+01 -0.16961860173E+02  0.53929625745E+02  0.00000000000E+00 0. -1.
       -3    1    4    4    0  502 -0.31658135944E+02 -0.95673381495E+00 -0.17273120153E+02  0.36076496378E+02  0.00000000000E+00 0.  1.
       -5    1    5    5    0  504 -0.19467316959E+02 -0.69522037211E+02 -0.78380569600E+02  0.10666721042E+03  0.47000000000E+01 0.  1.
       13    1    6    6    0    0  0.52394555888E+02 -0.45383194728E+01 -0.87543264828E+02  0.10212545739E+03  0.00000000000E+00 0. -1.
      -14    1    6    6    0    0  0.44683705010E+02  0.65927131299E+01  0.94816010327E+01  0.46151902647E+02  0.00000000000E+00 0.  1.
</event>
<event>
12   0  0.1523332E-01  0.1763496E+03  0.7957747E-01  0.1176875E+00
       21   -1    0    0  504  503  0.00000000000E+00  0.00000000000E+00  0.10232903219E+03  0.10232903219E+03  0.00000000000E+00 0.  1.
       21   -1    0    0  501  504  0.00000000000E+00  0.00000000000E+00 -0.30174729575E+03  0.30174729575E+03  0.00000000000E+00 0.  1.
        6    2    1    2  501    0  0.27876797921E+02 -0.12746710319E+02 -0.97193138705E+02  0.20135957606E+03  0.17366513229E+03 0.  0.
       24    2    3    3    0    0  0.35092100171E+02  0.35368868794E+02 -0.62766671797E+01  0.98136204990E+02  0.84314327400E+02 0.  0.
       -6    2    1    2    0  503 -0.27876797921E+02  0.12746710319E+02 -0.10222512485E+03  0.20271675189E+03  0.17234996623E+03 0.  0.
      -24    2    5    5    0    0  0.98928664738E+01 -0.82336819351E+01  0.62293940292E+01  0.85878414544E+02  0.84679598542E+02 0.  0.
        5    1    3    3  501    0 -0.72153022500E+01 -0.48115579113E+02 -0.90916471526E+02  0.10322337107E+03  0.47000000000E+01 0. -1.
      -11    1    4    4    0    0 -0.51648780829E+01  0.43365933150E+02  0.21399184666E+02  0.48633375658E+02  0.00000000000E+00 0.  1.
       12    1    4    4    0    0  0.40256978254E+02 -0.79970643559E+01 -0.27675851846E+02  0.49502829332E+02  0.00000000000E+00 0. -1.
       -5    1    5    5    0  503 -0.37769664395E+02  0.20980392255E+02 -0.10845451888E+03  0.11683833735E+03  0.47000000000E+01 0.  1.
        3    1    6    6  502    0  0.16924624985E+02 -0.40667531585E+02 -0.14940922014E+02  0.46513677631E+02  0.00000000000E+00 0. -1.
       -4    1    6    6    0  502 -0.70317585111E+01  0.32433849650E+02  0.21170316044E+02  0.39364736913E+02  0.00000000000E+00 0.  1.
</event>
<event>
12   0  0.1523332E-01  0.2137647E+03  0.7957747E-01  0.1145233E+00
       21   -1    0    0  501  503  0.00000000000E+00  0.00000000000E+00  0.10358941334E+03  0.10358941334E+03  0.00000000000E+00 0.  1.
       21   -1    0    0  503  504  0.00000000000E+00  0.00000000000E+00 -0.58278517723E+03  0.58278517723E+03  0.00000000000E+00 0.  1.
        6    2    1    2  501    0 -0.89050372867E+02 -0.85452690924E+02 -0.69476211979E+02  0.22424314244E+03  0.17385600825E+03 0.  0.
       24    2    3    3    0    0 -0.64765507180E+01 -0.90809930762E+02 -0.69688822689E+02  0.14136207508E+03  0.82694105167E+02 0.  0.
       -6    2    1    2    0  504  0.89050372867E+02  0.85452690924E+02 -0.40971955191E+03  0.46213144812E+03  0.17453719613E+03 0.  0.
      -24    2    5    5    0    0  0.12369385469E+03  0.34489894972E+02 -0.28409446241E+03  0.32212741063E+03  0.81035069942E+02 0.  0.
        5    1    3    3  501    0 -0.82573822149E+02  0.53572398377E+01  0.21261071021E+00  0.82881067358E+02  0.47000000000E+01 0. -1.
      -11    1    4    4    0    0  0.14654958087E+02 -0.93533383419E+02 -0.35567827473E+02  0.10113521623E+03  0.00000000000E+00 0.  1.
       12    1    4    4    0    0 -0.21131508805E+02  0.27234526566E+01 -0.34120995216E+02  0.40226858854E+02  0.00000000000E+00 0. -1.
       -5    1    5    5    0  504 -0.34643481821E+02  0.50962795952E+02 -0.12562508950E+03  0.14000403750E+03  0.47000000000E+01 0.  1.
        1    1    6    6  502    0  0.79056887253E+02 -0.70587885240E+01 -0.96939226127E+02  0.12528779462E+03  0.00000000000E+00 0. -1.
       -2    1    6    6    0  502  0.44636967435E+02  0.41548683496E+02 -0.18715523629E+03  0.19683961601E+03  0.00000000000E+00 0.  1.
</event>
<event>
12   0  0.1523332E-01  0.1867313E+03  0.7957747E-01  0.1167287E+00
       -2   -1    0    0    0  501  0.00000000000E+00  0.00000000000E+00  0.99346860764E+02  0.99346860764E+02  0.00000000000E+00 0.  1.
        2   -1    0    0  502    0  0.00000000000E+00  0.00000000000E+00 -0.43452337597E+03  0.43452337597E+03  0.00000000000E+00 0. -1.
        6    2    1    2  502    0  0.28216716508E+02 -0.58093109083E+02 -0.48470086026E+02  0.19008019108E+03  0.17207596400E+03 0.  0.
       24    2    3    3    0    0 -0.75173343270E+01 -0.10045587178E+03 -0.31561421770E+02  0.13194656072E+03  0.79157305731E+02 0.  0.
       -6    2    1    2    0  501 -0.28216716508E+02  0.58093109083E+02 -0.28670642918E+03  0.34379004566E+03  0.17838168781E+03 0.  0.
      -24    2    5    5    0    0 -0.20112398982E+02  0.38305592175E+02 -0.30296632535E+03  0.31651918188E+03  0.80771103835E+02 0.  0.
        5    1    3    3  502    0  0.35734050835E+02  0.42362762695E+02 -0.16908664256E+02  0.58133630363E+02  0.47000000000E+01 0. -1.
        4    1    4    4  503    0 -0.43316462238E+02 -0.60840270371E+02 -0.19959469003E+02  0.77306111029E+02  0.00000000000E+00 0. -1.
       -3    1    4    4    0  503  0.35799127911E+02 -0.39615601407E+02 -0.11601952767E+02  0.54640449687E+02  0.00000000000E+00 0.  1.
       -5    1    5    5    0  501 -0.81043175264E+01  0.19787516908E+02  0.16259896168E+02  0.27270863781E+02  0.47000000000E+01 0.  1.
       13    1    6    6    0    0 -0.49104688147E+02  0.81487773832E+01 -0.16135825194E+03  0.16886135863E+03  0.00000000000E+00 0. -1.
      -14    1    6    6    0    0  0.28992289166E+02  0.30156814792E+02 -0.14160807341E+03  0.14765782324E+03  0.00000000000E+00 0.  1.
</event>
<event>
12   0  0.1523332E-01  0.2067093E+03  0.7957747E-01  0.1150629E+00
       21   -1    0    0  501  503  0.00000000000E+00  0.00000000000E+00  0.16769148792E+03  0.16769148792E+03  0.00000000000E+00 0.  1.
       21   -1    0    0  503  504  0.00000000000E+00  0.00000000000E+00 -0.26963798453E+03  0.26963798453E+03  0.00000000000E+00 0.  1.
        6    2    1    2  501    0  0.89174733702E+02 -0.70843278595E+02 -0.10343789910E+03  0.23114527552E+03  0.17250459754E+03 0.  0.
       24    2    3    3    0    0  0.19056453439E+02 -0.99923292041E+02 -0.62692292896E+02  0.14486367358E+03  0.81898398179E+02 0.  0.
       -6    2    1    2    0  504 -0.89174733702E+02  0.70843278595E+02  0.14914024805E+01  0.20618419693E+03  0.17186854142E+03 0.  0.
      -24    2    5    5    0    0 -0.10560271344E+02 -0.25179258492E+01 -0.40134370989E+02  0.90785345001E+02  0.80705339667E+02 0.  0.
        5    1    3    3  501    0  0.70118280263E+02  0.29080013446E+02 -0.40745606202E+02  0.86281601943E+02  0.47000000000E+01 0. -1.
      -11    1    4    4    0    0  0.42847414546E+02 -0.67494417946E+02 -0.13100647466E+02  0.81012495031E+02  0.00000000000E+00 0.  1.
       12    1    4    4    0    0 -0.23790961107E+02 -0.32428874094E+02 -0.49591645430E+02  0.63851178547E+02  0.00000000000E+00 0. -1.
       -5    1    5    5    0  504 -0.78614462358E+02  0.73361204444E+02  0.41625773470E+02  0.11539885193E+03  0.47000000000E+01 0.  1.
        1    1    6    6  502    0 -0.27127755050E+02 -0.29801256508E+02 -0.10365716865E+01  0.40312584442E+02  0.00000000000E+00 0. -1.
       -2    1    6    6    0  502  0.16567483706E+02  0.27283330659E+02 -0.39097799303E+02  0.50472760560E+02  0.00000000000E+00 0.  1.
</event>
<event>
12   0  0.1523332E-01  0.1762150E+03  0.7957747E-01  0.1177004E+00
       -2   -1    0    0    0  501  0.00000000000E+00  0.00000000000E+00  0.41633423169E+02  0.41633423169E+02  0.00000000000E+00 0.  1.
        2   -1    0    0  502    0  0.00000000000E+00  0.00000000000E+00 -0.10193512701E+04  0.10193512701E+04  0.00000000000E+00 0. -1.
        6    2    1    2  502    0  0.18322701369E+01  0.59087577767E+02 -0.74986035207E+03  0.76885810916E+03  0.15924052672E+03 0.  0.
       24    2    3    3    0    0  0.53532595126E+02  0.65964403943E+02 -0.54578821997E+03  0.55817412912E+03  0.80352573314E+02 0.  0.
       -6    2    1    2    0  501 -0.18322701369E+01 -0.59087577767E+02 -0.22785749483E+03  0.29212658408E+03  0.17298613851E+03 0.  0.
      -24    2    5    5    0    0  0.61396614866E+02 -0.10219342048E+02 -0.11109187794E+03  0.15055576912E+03  0.80322194954E+02 0.  0.
        5    1    3    3  502    0 -0.51700324989E+02 -0.68768261760E+01 -0.20407213210E+03  0.21068398003E+03  0.47000000000E+01 0. -1.
        4    1    4    4  503    0  0.65762649808E+01  0.65378176559E+02 -0.38878072633E+03  0.39429431444E+03  0.00000000000E+00 0. -1.
       -3    1    4    4    0  503  0.46956330145E+02  0.58622738388E+00 -0.15700749364E+03  0.16387981469E+03  0.00000000000E+00 0.  1.
       -5    1    5    5    0  501 -0.63228885003E+02 -0.48868235719E+02 -0.11676561689E+03  0.14157081496E+03  0.47000000000E+01 0.  1.
       11    1    6    6    0    0  0.38013878529E+02 -0.23327780756E+02 -0.11511120775E+03  0.12344970825E+03  0.00000000000E+00 0. -1.
      -12    1    6    6    0    0  0.23382736338E+02  0.13108438708E+02  0.40193298120E+01  0.27106060874E+02  0.00000000000E+00 0.  1.
</event>
<event>
12   0  0.1523332E-01  0.2115094E+03  0.7957747E-01  0.1146933E+00
       21   -1    0    0  501  503  0.00000000000E+00  0.00000000000E+00  0.10409680685E+04  0.10409680685E+04  0.00000000000E+00 0. -1.
       21   -1    0    0  503  504  0.00000000000E+00  0.00000000000E+00 -0.75359416806E+02  0.75359416806E+02  0.00000000000E+00 0. -1.
        6    2    1    2  501    0  0.82346739840E+02 -0.89989323761E+02  0.84890519367E+03  0.87475774094E+03  0.17228468749E+03 0.  0.
       24    2    3    3    0    0  0.84203277150E+02 -0.65330713551E+02  0.33630831642E+03  0.36154322209E+03  0.79069107327E+02 0.  0.
       -6    2    1    2    0  504 -0.82346739840E+02  0.89989323761E+02  0.11670345807E+03  0.24156974441E+03  0.17279230404E+03 0.  0.
      -24    2    5    5    0    0 -0.50732781829E+01  0.52635753172E+01  0.84199192089E+02  0.12228748407E+03  0.88381454131E+02 0.  0.
        5    1    3    3  501    0 -0.18565373100E+01 -0.24658610211E+02  0.51259687725E+03  0.51321451884E+03  0.47000000000E+01 0. -1.
        2    1    4    4  502    0  0.97050258489E+02 -0.41837802727E+02  0.27675271075E+03  0.29624519797E+03  0.00000000000E+00 0. -1.
       -1    1    4    4    0  502 -0.12846981339E+02 -0.23492910824E+02  0.59555605666E+02  0.65298024126E+02  0.00000000000E+00 0.  1.
       -5    1    5    5    0  504 -0.77273461657E+02  0.84725748444E+02  0.32504265981E+02  0.11928226034E+03  0.47000000000E+01 0.  1.
       13    1    6    6    0    0 -0.37562894772E+02 -0.19058659772E+02  0.20716112494E+02  0.46939971164E+02  0.00000000000E+00 0. -1.
      -14    1    6    6    0    0  0.32489616589E+02  0.24322235089E+02  0.63483079594E+02  0.75347512903E+02  0.00000000000E+00 0.  1.
</event>
<event>
12   0  0.1523332E-01  0.1960898E+03  0.7957747E-01  0.1159213E+00
       21   -1    0    0  501  503  0.00000000000E+00  0.00000000000E+00  0.79801614376E+03  0.79801614376E+03  0.00000000000E+00 0.  1.
       21   -1    0    0  503  504  0.00000000000E+00  0.00000000000E+00 -0.50846334913E+02  0.50846334913E+02  0.00000000000E+00 0.  1.
        6    2    1    2  501    0  0.48498759797E+02  0.77615005524E+02  0.47422394865E+03  0.51316619871E+03  0.17342138056E+03 0.  0.
       24    2    3    3    0    0  0.71851575228E+02  0.19024492862E+02  0.16762485396E+03  0.20011141592E+03  0.80136801307E+02 0.  0.
       -6    2    1    2    0  504 -0.48498759797E+02 -0.77615005524E+02  0.27294586020E+03  0.33569627997E+03  0.17267406001E+03 0.  0.
      -24    2    5    5    0    0 -0.87571620455E+01 -0.44402448502E+02  0.26545779151E+03  0.28315458501E+03  0.87523794589E+02 0.  0.
        5    1    3    3  501    0 -0.23352815431E+02  0.58590512663E+02  0.30659909469E+03  0.31305478279E+03  0.47000000000E+01 0. -1.
      -11    1    4    4    0    0  0.19088142841E+02 -0.18608484566E+02  0.11066047703E+03  0.11382606938E+03  0.00000000000E+00 0.  1.
       12    1    4    4    0    0  0.52763432387E+02  0.37632977428E+02  0.56964376933E+02  0.86285346535E+02  0.00000000000E+00 0. -1.
       -5    1    5    5    0  504 -0.39741597752E+02 -0.33212557022E+02  0.74880686818E+01  0.52541694952E+02  0.47000000000E+01 0.  1.
        3    1    6    6  502    0  0.34998482390E+02 -0.10840104784E+02  0.58929111272E+02  0.69390502208E+02  0.00000000000E+00 0. -1.
       -4    1    6    6    0  502 -0.43755644435E+02 -0.33562343718E+02  0.20652868024E+03  0.21376408281E+03  0.00000000000E+00 0.  1.
</event>
<event>
12   0  0.1523332E-01  0.2426256E+03  0.7957747E-01  0.1125318E+00
       21   -1    0    0  501  503  0.00000000000E+00  0.00000000000E+00  0.95877148379E+02  0.95877148379E+02  0.00000000000E+00 0.  1.
       21   -1    0    0  503  504  0.00000000000E+00  0.00000000000E+00 -0.69323506822E+03  0.69323506822E+03  0.00000000000E+00 0.  1.
        6    2    1    2  501    0  0.13148157393E+03  0.10522668693E+03 -0.16343784247E+03  0.29253905643E+03  0.17466285027E+03 0.  0.
       24    2    3    3    0    0  0.16187861627E+03  0.10808306868E+03 -0.13585630368E+03  0.25112685555E+03  0.81982474881E+02 0.  0.
       -6    2    1    2    0  504 -0.13148157393E+03 -0.10522668693E+03 -0.43392007738E+03  0.49657316017E+03  0.17302661623E+03 0.  0.
      -24    2    5    5    0    0 -0.54788388081E+01  0.38322604701E+01 -0.60838698781E+02  0.87938423123E+02  0.63143606936E+02 0.  0.
        5    1    3    3  501    0 -0.30397042347E+02 -0.28563817491E+01 -0.27581538784E+02  0.41412200882E+02  0.47000000000E+01 0. -1.
      -11    1    4    4    0    0  0.56328822698E+02  0.84444102275E+02 -0.50705922583E+02  0.11346732244E+03  0.00000000000E+00 0.  1.
       12    1    4    4    0    0  0.10554979358E+03  0.23638966401E+02 -0.85150381100E+02  0.13765953312E+03  0.00000000000E+00 0. -1.
       -5    1    5    5    0  504 -0.12600273512E+03 -0.10905894740E+03 -0.37308137859E+03  0.40863473704E+03  0.47000000000E+01 0.  1.
        1    1    6    6  502    0  0.26213295212E+02 -0.62910036337E+01 -0.13693278875E+02  0.30236062226E+02  0.00000000000E+00 0. -1.
       -2    1    6    6    0  502 -0.31692134020E+02  0.10123264104E+02 -0.47145419906E+02  0.57702360896E+02  0.00000000000E+00 0.  1.
</event>
<event>
12   0  0.1523332E-01  0.1791193E+03  0.7957747E-01  0.1174248E+00
       21   -1    0    0  504  503  0.00000000000E+00  0.00000000000E+00  0.57640744037E+02  0.57640744037E+02  0.00000000000E+00 0.  1.
       21   -1    0    0  501  504  0.00000000000E+00  0.00000000000E+00 -0.64961133872E+03  0.64961133872E+03  0.00000000000E+00 0.  1.
        6    2    1    2  501    0  0.74474240003E+01  0.32046453861E+02 -0.43660870964E+03  0.47014229686E+03  0.17124302797E+03 0.  0.
       24    2    3    3    0    0 -0.44041589207E+02  0.26470047238E+02 -0.38560343418E+03  0.39730107970E+03  0.80732982728E+02 0.  0.
       -6    2    1    2    0  503 -0.74474240003E+01 -0.32046453861E+02 -0.15536188504E+03  0.23710978590E+03  0.17607184873E+03 0.  0.
      -24    2    5    5    0    0  0.34005906868E+02 -0.43288204566E+02 -0.27395711535E+02  0.10204614475E+03  0.81440900604E+02 0.  0.
        5    1    3    3  501    0  0.51489013207E+02  0.55764066230E+01 -0.51005275467E+02  0.72841217160E+02  0.47000000000E+01 0. -1.
        4    1    4    4  502    0 -0.26412119857E+02 -0.25936670120E+02 -0.20871239050E+03  0.21196974520E+03  0.00000000000E+00 0. -1.
       -3    1    4    4    0  502 -0.17629469350E+02  0.52406717357E+02 -0.17689104368E+03  0.18533133450E+03  0.00000000000E+00 0.  1.
       -5    1    5    5    0  503 -0.41453330869E+02  0.11241750705E+02 -0.12796617351E+03  0.13506364115E+03  0.47000000000E+01 0.  1.
       11    1    6    6    0    0 -0.26275810255E+02 -0.21410171475E+02 -0.13137466914E+02  0.36351157947E+02  0.00000000000E+00 0. -1.
      -12    1    6    6    0    0  0.60281717124E+02 -0.21878033091E+02 -0.14258244621E+02  0.65694986802E+02  0.00000000000E+00 0.  1.
</event>
<event>
12   0  0.1523332E-01  0.2009422E+03  0.7957747E-01  0.1155219E+00
       21   -1    0    0  501  503  0.00000000000E+00  0.00000000000E+00  0.39307374431E+03  0.39307374431E+03  0.00000000000E+00 0. -1.
       21   -1    0    0  503  504  0.00000000000E+00  0.00000000000E+00 -0.19201015336E+03  0.19201015336E+03  0.00000000000E+00 0. -1.
        6    2    1    2  501    0 -0.80376690433E+02  0.63675535208E+02  0.30068790599E+03  0.36080110837E+03  0.17102408264E+03 0.  0.
       24    2    3    3    0    0 -0.71764236146E+02 -0.24248764694E+02  0.14948364701E+03  0.18561642064E+03  0.79812196489E+02 0.  0.
       -6    2    1    2    0  504  0.80376690433E+02 -0.63675535208E+02 -0.99624315039E+02  0.22428278931E+03  0.17280850466E+03 0.  0.
      -24    2    5    5    0    0 -0.83146864490E+01 -0.73645028658E+02 -0.33056913329E+02  0.11284284986E+03  0.78409342490E+02 0.  0.
        5    1    3    3  501    0 -0.86124542874E+01  0.87924299902E+02  0.15120425898E+03  0.17518468773E+03  0.47000000000E+01 0. -1.
        4    1    4    4  502    0 -0.88661903298E+02 -0.13140545986E+02  0.11763907058E+03  0.14789373879E+03  0.00000000000E+00 0. -1.
       -3    1    4    4    0  502  0.16897667153E+02 -0.11108218708E+02  0.31844576435E+02  0.37722681856E+02  0.00000000000E+00 0.  1.
       -5    1    5    5    0  504  0.88691376882E+02  0.99694934498E+01 -0.66567401710E+02  0.11143993944E+03  0.47000000000E+01 0.  1.
       13    1    6    6    0    0  0.15605453649E+02 -0.63493432820E+02  0.62952616283E+01  0.65685436086E+02  0.00000000000E+00 0. -1.
      -14    1    6    6    0    0 -0.23920140098E+02 -0.10151595838E+02 -0.39352174957E+02  0.47157413778E+02  0.00000000000E+00 0.  1.
</event>
<event>
12   0  0.1523332E-01  0.3168647E+03  0.7957747E-01  0.1085527E+00
       21   -1    0    0  504  503  0.00000000000E+00  0.00000000000E+00  0.25743287416E+03  0.25743287416E+03  0.00000000000E+00 0.  1.
       21   -1    0    0  501  504  0.00000000000E+00  0.00000000000E+00 -0.42600960646E+03  0.42600960646E+03  0.00000000000E+00 0. -1.
        6    2    1    2  501    0  0.13117407750E+03 -0.22245899084E+03 -0.19386562319E+03  0.37146613129E+03  0.18359892600E+03 0.  0.
       24    2    3    3    0    0  0.14822696881E+02 -0.13823664441E+03 -0.15235786685E+03  0.22187993124E+03  0.81784485663E+02 0.  0.
       -6    2    1    2    0  503 -0.13117407750E+03  0.22245899084E+03  0.25288890887E+02  0.31197634934E+03  0.17319085810E+03 0.  0.
      -24    2    5    5    0    0 -0.56311635634E+02  0.17610324455E+03 -0.33460269480E+02  0.20601978154E+03  0.84505666684E+02 0.  0.
        5    1    3    3  501    0  0.11635138062E+03 -0.84222346432E+02 -0.41507756345E+02  0.14958620005E+03  0.47000000000E+01 0. -1.
      -11    1    4    4    0    0  0.41592207218E+02 -0.10362758848E+03 -0.80150500765E+02  0.13745068777E+03  0.00000000000E+00 0.  1.
       12    1    4    4    0    0 -0.26769510337E+02 -0.34609055929E+02 -0.72207366080E+02  0.84429243466E+02  0.00000000000E+00 0. -1.
       -5    1    5    5    0  503 -0.74862441862E+02  0.46355746289E+02  0.58749160367E+02  0.10595656780E+03  0.47000000000E+01 0.  1.
        1    1    6    6  502    0  0.13660960332E+02  0.67147270492E+02  0.10391765499E+02  0.69306324111E+02  0.00000000000E+00 0. -1.
       -2    1    6    6    0  502 -0.69972595966E+02  0.10895597406E+03 -0.43852034979E+02  0.13671345743E+03  0.00000000000E+00 0.  1.
</event>
<event>
12   0  0.1523332E-01  0.2373030E+03  0.7957747E-01  0.1128756E+00
       21   -1    0    0  504  503  0.00000000000E+00  0.00000000000E+00  0.22197623210E+03  0.22197623210E+03  0.00000000000E+00 0. -1.
       21   -1    0    0  501  504  0.00000000000E+00  0.00000000000E+00 -0.26358606023E+03  0.26358606023E+03  0.00000000000E+00 0. -1.
        6    2    1    2  501    0 -0.83135157451E+02  0.13758093188E+03 -0.72330104820E+02  0.24808131118E+03  0.17456438832E+03 0.  0.
       24    2    3    3    0    0 -0.10378093218E+03  0.43985983588E+02 -0.60227593139E+02  0.15136097645E+03  0.81101994917E+02 0.  0.
       -6    2    1    2    0  503  0.83135157451E+02 -0.13758093188E+03  0.30720276696E+02  0.23748098116E+03  0.17208577451E+03 0.  0.
      -24    2    5    5    0    0 -0.78892388359E+01 -0.11254811898E+03  0.32972318483E+02  0.14293340512E+03  0.81323215253E+02 0.  0.
        5    1    3    3  501    0  0.20645774731E+02  0.93594948296E+02 -0.12102511681E+02  0.96720334727E+02  0.47000000000E+01 0. -1.
        4    1    4    4  502    0 -0.38164215716E+02  0.50795137313E+02 -0.23125245580E+01  0.63576733997E+02  0.00000000000E+00 0. -1.
       -3    1    4    4    0  502 -0.65616716465E+02 -0.68091537248E+01 -0.57915068581E+02  0.87784242452E+02  0.00000000000E+00 0.  1.
       -5    1    5    5    0  503  0.91024396287E+02 -0.25032812906E+02 -0.22520417870E+01  0.94547576032E+02  0.47000000000E+01 0.  1.
       11    1    6    6    0    0 -0.17478149152E+02  0.38182788544E+01 -0.74414805063E+01  0.19376289204E+02  0.00000000000E+00 0. -1.
      -12    1    6    6    0    0  0.95889103162E+01 -0.11636639783E+03  0.40413798990E+02  0.12355711592E+03  0.00000000000E+00 0.  1.
</event>
<event>
12   0  0.1523332E-01  0.2016620E+03  0.7957747E-01  0.1154637E+00
       21   -1    0    0  504  503  0.00000000000E+00  0.00000000000E+00  0.17607483492E+03  0.17607483492E+03  0.00000000000E+00 0. -1.
       21   -1    0    0  501  504  0.00000000000E+00  0.00000000000E+00 -0.64802730298E+03  0.64802730298E+03  0.00000000000E+00 0.  1.
        6    2    1    2  501    0  0.20106609995E+02  0.10154969680E+03 -0.56672010067E+03  0.60128279930E+03  0.17219963866E+03 0.  0.
       24    2    3    3    0    0 -0.34442239477E+02  0.57331160379E+02 -0.47482809122E+03  0.48553701172E+03  0.76232169937E+02 0.  0.
       -6    2    1    2    0  503 -0.20106609995E+02 -0.10154969680E+03  0.94767632608E+02  0.22281933860E+03  0.17306338948E+03 0.  0.
      -24    2    5    5    0    0 -0.68550258918E+02 -0.10153951011E+03  0.46645078959E+02  0.15437478152E+03  0.81525454103E+02 0.  0.
        5    1    3    3  501    0  0.54548849472E+02  0.44218536426E+02 -0.91892009449E+02  0.11574578758E+03  0.47000000000E+01 0. -1.
        4    1    4    4  502    0 -0.42089566095E+02  0.91423946524E+01 -0.12260175256E+03  0.12994731503E+03  0.00000000000E+00 0. -1.
       -3    1    4    4    0  502  0.76473266175E+01  0.48188765727E+02 -0.35222633866E+03  0.35558969669E+03  0.00000000000E+00 0.  1.
       -5    1    5    5    0  503  0.48443648924E+02 -0.10186695384E-01  0.48122553649E+02  0.68444557084E+02  0.47000000000E+01 0.  1.
       13    1    6    6    0    0 -0.63842865029E+01 -0.40953707939E+02 -0.18947568909E+02  0.45573848593E+02  0.00000000000E+00 0. -1.
      -14    1    6    6    0    0 -0.62165972415E+02 -0.60585802171E+02  0.65592647868E+02  0.10880093292E+03  0.00000000000E+00 0.  1.
</event>
<event>
12   0  0.1523332E-01  0.1942004E+03  0.7957747E-01  0.1160802E+00
       21   -1    0    0  501  503  0.00000000000E+00  0.00000000000E+00  0.58135200377E+03  0.58135200377E+03  0.00000000000E+00 0. -1.
       21   -1    0    0  503  504  0.00000000000E+00  0.00000000000E+00 -0.85385040067E+02  0.85385040067E+02  0.00000000000E+00 0.  1.
        6    2    1    2  501    0 -0.82122847945E+02 -0.23311990086E+02  0.41253183498E+03  0.45537187889E+03  0.17289714332E+03 0.  0.
       24    2    3    3    0    0 -0.11302372967E+03 -0.26246619935E+02  0.39600320455E+03  0.41989284046E+03  0.77641554137E+02 0.  0.
       -6    2    1    2    0  504  0.82122847945E+02  0.23311990086E+02  0.83435128718E+02  0.21136516495E+03  0.17443107869E+03 0.  0.
      -24    2    5    5    0    0  0.97822028163E+01 -0.42159385400E+02  0.70446222162E+02  0.11282343958E+03  0.76768177210E+02 0.  0.
        5    1    3    3  501    0  0.30900881726E+02  0.29346298499E+01  0.16528630437E+02  0.35479038430E+02  0.47000000000E+01 0. -1.
        2    1    4    4  502    0 -0.80948922695E+02  0.16019619342E+02  0.28755263789E+03  0.29915861319E+03  0.00000000000E+00 0. -1.
       -1    1    4    4    0  502 -0.32074806976E+02 -0.42266239277E+02  0.10845056666E+03  0.12073422727E+03  0.00000000000E+00 0.  1.
       -5    1    5    5    0  504  0.72340645128E+02  0.65471375485E+02  0.12988906556E+02  0.98541725371E+02  0.47000000000E+01 0.  1.
       11    1    6    6    0    0 -0.13558130658E+02  0.18495983509E+02  0.21817752319E+02  0.31653414178E+02  0.00000000000E+00 0. -1.
      -12    1    6    6    0    0  0.23340333474E+02 -0.60655368909E+02  0.48628469843E+02  0.81170025400E+02  0.00000000000E+00 0.  1.
</event>
<event>
12   0  0.1523332E-01  0.1953903E+03  0.7957747E-01  0.1159799E+00
       -2   -1    0    0    0  501  0.00000000000E+00  0.00000000000E+00  0.11289109819E+03  0.11289109819E+03  0.00000000000E+00 0. -1.
        2   -1    0    0  502    0  0.00000000000E+00  0.00000000000E+00 -0.41230671044E+03  0.41230671044E+03  0.00000000000E+00 0.  1.
        6    2    1    2  502    0  0.58977357592E+02  0.68446001426E+02 -0.26125426540E+03  0.32643003495E+03  0.17360758252E+03 0.  0.
       24    2    3    3    0    0  0.41998251898E+02  0.65501373916E+01 -0.24161982691E+03  0.25914713081E+03  0.83488545251E+02 0.  0.
       -6    2    1    2    0  501 -0.58977357592E+02 -0.68446001426E+02 -0.38161346854E+02  0.19876777368E+03  0.17288480454E+03 0.  0.
      -24    2    5    5    0    0  0.77888856238E+01 -0.74239644809E+02  0.17751827163E+02  0.11136256465E+03  0.80711224972E+02 0.  0.
        5    1    3    3  502    0  0.16979105694E+02  0.61895864034E+02 -0.19634438486E+02  0.67282904139E+02  0.47000000000E+01 0. -1.
        4    1    4    4  503    0 -0.20351955234E+02  0.12261427264E+02 -0.12029641684E+03  0.12262044114E+03  0.00000000000E+00 0. -1.
       -3    1    4    4    0  503  0.62350207132E+02 -0.57112898728E+01 -0.12132341007E+03  0.13652668967E+03  0.00000000000E+00 0.  1.
       -5    1    5    5    0  501 -0.66766243216E+02  0.57936433839E+01 -0.55913174017E+02  0.87405209030E+02  0.47000000000E+01 0.  1.
       13    1    6    6    0    0 -0.25737453137E+01 -0.81725995990E+02 -0.84564123549E+01  0.82202636791E+02  0.00000000000E+00 0. -1.
      -14    1    6    6    0    0  0.10362630938E+02  0.74863511806E+01  0.26208239518E+02  0.29159927856E+02  0.00000000000E+00 0.  1.
</event>
<event>
12   0  0.1523332E-01  0.1817229E+03  0.7957747E-01  0.1171825E+00
       21   -1    0    0  504  503  0.00000000000E+00  0.00000000000E+00  0.52617643588E+02  0.52617643588E+02  0.00000000000E+00 0.  1.
       21   -1    0    0  501  504  0.00000000000E+00  0.00000000000E+00 -0.83680767333E+03  0.83680767333E+03  0.00000000000E+00 0.  1.
        6    2    1    2  501    0 -0.52932064131E+02  0.26615974792E+02 -0.61832756646E+03  0.64338960794E+03  0.16766333721E+03 0.  0.
       24    2    3    3    0    0 -0.59754726283E+01  0.19903257248E+02 -0.13052176915E+03  0.15326047399E+03  0.77595069074E+02 0.  0.
       -6    2    1    2    0  503  0.52932064131E+02 -0.26615974792E+02 -0.16586246329E+03  0.24603570897E+03  0.17179348019E+03 0.  0.
      -24    2    5    5    0    0  0.69918704811E+02 -0.59032937282E+02 -0.17069932344E+03  0.20882159021E+03  0.78068460659E+02 0.  0.
        5    1    3    3  501    0 -0.46956591503E+02  0.67127175437E+01 -0.48780579731E+03  0.49012913395E+03  0.47000000000E+01 0. -1.
      -13    1    4    4    0    0 -0.22629969264E+02  0.52801612526E+00 -0.12511375919E+03  0.12714498436E+03  0.00000000000E+00 0.  1.
       14    1    4    4    0    0  0.16654496635E+02  0.19375241123E+02 -0.54080099543E+01  0.26115489626E+02  0.00000000000E+00 0. -1.
       -5    1    5    5    0  503 -0.16986640679E+02  0.32416962490E+02  0.48368601567E+01  0.37214118756E+02  0.47000000000E+01 0.  1.
        3    1    6    6  502    0  0.39125317479E+02 -0.18775508095E+02 -0.14624166222E+03  0.15254485879E+03  0.00000000000E+00 0. -1.
       -4    1    6    6    0  502  0.30793387331E+02 -0.40257429187E+02 -0.24457661219E+02  0.56276731430E+02  0.00000000000E+00 0.  1.
</event>
<event>
12   0  0.1523332E-01  0.1932594E+03  0.7957747E-01  0.1161602E+00
       21   -1    0    0  504  503  0.00000000000E+00  0.00000000000E+00  0.43715759321E+03  0.43715759321E+03  0.00000000000E+00 0. -1.
       21   -1    0    0  501  504  0.00000000000E+00  0.00000000000E+00 -0.99303985273E+02  0.99303985273E+02  0.00000000000E+00 0.  1.
        6    2    1    2  501    0  0.77241319078E+02 -0.36593079231E+02  0.26975424255E+03  0.33155501272E+03  0.17278917868E+03 0.  0.
       24    2    3    3    0    0  0.10634453904E+03 -0.64565088687E+02  0.17985378321E+03  0.23289593653E+03  0.80095706859E+02 0.  0.
       -6    2    1    2    0  503 -0.77241319078E+02  0.36593079231E+02  0.68099365390E+02  0.20490656576E+03  0.17333176947E+03 0.  0.
      -24    2    5    5    0    0 -0.24619210297E+02 -0.45062765129E+02  0.67107996592E+02  0.10764487720E+03  0.66687165659E+02 0.  0.
        5    1    3    3  501    0 -0.29103219963E+02  0.27972009457E+02  0.89900459339E+02  0.98659076190E+02  0.47000000000E+01 0. -1.
      -13    1    4    4    0    0  0.80900811737E+02 -0.14628476811E+02  0.14561355055E+03  0.16721913700E+03  0.00000000000E+00 0.  1.
       14    1    4    4    0    0  0.25443727303E+02 -0.49936611876E+02  0.34240232658E+02  0.65676799535E+02  0.00000000000E+00 0. -1.
       -5    1    5    5    0  503 -0.52622108781E+02  0.81655844360E+02  0.99136879804E+00  0.97261688566E+02  0.47000000000E+01 0.  1.
        3    1    6    6  502    0 -0.47373008711E+02 -0.33329107183E+02  0.40212673954E+02  0.70513051888E+02  0.00000000000E+00 0. -1.
       -4    1    6    6    0  502  0.22753798414E+02 -0.11733657946E+02  0.26895322638E+02  0.37131825310E+02  0.00000000000E+00 0.  1.
</event>
<event>
12   0  0.1523332E-01  0.2269555E+03  0.7957747E-01  0.1135730E+00
       21   -1    0    0  504  503  0.00000000000E+00  0.00000000000E+00  0.24016935681E+03  0.24016935681E+03  0.00000000000E+00 0.  1.
       21   -1    0    0  501  504  0.00000000000E+00  0.00000000000E+00 -0.21427474978E+03  0.21427474978E+03  0.00000000000E+00 0. -1.
        6    2    1    2  501    0 -0.45299232085E+00  0.14660096602E+03  0.12634300404E+02  0.22730690989E+03  0.17325344816E+03 0.  0.
       24    2    3    3    0    0 -0.15222514050E+01  0.68033225353E+01  0.28417214634E+02  0.86538607988E+02  0.81441943359E+02 0.  0.
       -6    2    1    2    0  503  0.45299232085E+00 -0.14660096602E+03  0.13260306631E+02  0.22713719670E+03  0.17298387772E+03 0.  0.
      -24    2    5    5    0    0 -0.27470563198E+02 -0.11226795735E+03  0.68131721023E+02  0.15648705477E+03  0.80545271805E+02 0.  0.
        5    1    3    3  501    0  0.10692590841E+01  0.13979764349E+03 -0.15782914230E+02  0.14076830191E+03  0.47000000000E+01 0. -1.
        4    1    4    4  502    0 -0.17516944045E+02 -0.23632856282E+02 -0.13463924634E+02  0.32351699975E+02  0.00000000000E+00 0. -1.
       -3    1    4    4    0  502  0.15994692640E+02  0.30436178817E+02  0.41881139267E+02  0.54186908013E+02  0.00000000000E+00 0.  1.
       -5    1    5    5    0  503  0.27923555519E+02 -0.34333008674E+02 -0.54871414392E+02  0.70650141930E+02  0.47000000000E+01 0.  1.
       11    1    6    6    0    0 -0.22714521493E+02  0.16588718250E-01 -0.38325453033E+01  0.23035584763E+02  0.00000000000E+00 0. -1.
      -12    1    6    6    0    0 -0.47560417045E+01 -0.11228454607E+03  0.71964266326E+02  0.13345147001E+03  0.00000000000E+00 0.  1.
</event>
<event>
12   0  0.1523332E-01  0.2550003E+03  0.7957747E-01  0.1117683E+00
       21   -1    0    0  501  503  0.00000000000E+00  0.00000000000E+00  0.51980692742E+03  0.51980692742E+03  0.00000000000E+00 0.  1.
       21   -1    0    0  503  504  0.00000000000E+00  0.00000000000E+00 -0.14604807114E+03  0.14604807114E+03  0.00000000000E+00 0. -1.
        6    2    1    2  501    0  0.18508329245E+03 -0.27119782435E+02  0.31416215062E+03  0.40462698950E+03  0.17330272936E+03 0.  0.
       24    2    3    3    0    0  0.18418733626E+03 -0.62700751748E+02  0.29948263003E+03  0.36584056868E+03  0.79329167993E+02 0.  0.
       -6    2    1    2    0  504 -0.18508329245E+03  0.27119782435E+02  0.59596705660E+02  0.26122800906E+03  0.17232816848E+03 0.  0.
      -24    2    5    5    0    0 -0.20154613037E+02  0.16461785930E+02 -0.45690031706E+01  0.83874152688E+02  0.79604012941E+02 0.  0.
        5    1    3    3  501    0  0.89595618591E+00  0.35580969312E+02  0.14679520588E+02  0.38786420812E+02  0.47000000000E+01 0. -1.
        2    1    4    4  502    0  0.75310414440E+02 -0.34535060699E+02  0.63351854463E+02  0.10429662700E+03  0.00000000000E+00 0. -1.
       -1    1    4    4    0  502  0.10887692182E+03 -0.28165691049E+02  0.23613077557E+03  0.26154394168E+03  0.00000000000E+00 0.  1.
       -5    1    5    5    0  504 -0.16492867941E+03  0.10657996505E+02  0.64165708831E+02  0.17735385637E+03  0.47000000000E+01 0.  1.
       13    1    6    6    0    0  0.27595400769E+02  0.22334433424E+02  0.44354316066E+00  0.35503940492E+02  0.00000000000E+00 0. -1.
      -14    1    6    6    0    0 -0.47750013806E+02 -0.58726474932E+01 -0.50125463312E+01  0.48370212195E+02  0.00000000000E+00 0.  1.
</event>
<event>
12   0  0.1523332E-01  0.2393454E+03  0.7957747E-01  0.1127425E+00
       21   -1    0    0  501  503  0.00000000000E+00  0.00000000000E+00  0.21081412671E+03  0.21081412671E+03  0.00000000000E+00 0. -1.
       21   -1    0    0  503  504  0.00000000000E+00  0.00000000000E+00 -0.67967689367E+03  0.67967689367E+03  0.00000000000E+00 0. -1.
        6    2    1    2  501    0  0.16384317672E+03 -0.25936934019E+02  0.11056586637E+03  0.26364943426E+03  0.17253666937E+03 0.  0.
       24    2    3    3    0    0  0.74977681113E+02 -0.25148254959E+02 -0.10835977807E+02  0.11312303760E+03  0.80158067763E+02 0.  0.
       -6    2    1    2    0  504 -0.16384317672E+03  0.25936934019E+02 -0.57942863333E+03  0.62684158611E+03  0.17226584645E+03 0.  0.
      -24    2    5    5    0    0 -0.38016725989E+02  0.61844053946E+02 -0.31349469491E+03  0.33042200752E+03  0.75032132172E+02 0.  0.
        5    1    3    3  501    0  0.88865495606E+02 -0.78867905922E+00  0.12140184418E+03  0.15052639667E+03  0.47000000000E+01 0. -1.
      -11    1    4    4    0    0  0.71749202238E+02  0.76658764980E+01 -0.26173460557E+02  0.76757825150E+02  0.00000000000E+00 0.  1.
       12    1    4    4    0    0  0.32284788747E+01 -0.32814131457E+02  0.15337482750E+02  0.36365212446E+02  0.00000000000E+00 0. -1.
       -5    1    5    5    0  504 -0.12582645073E+03 -0.35907119927E+02 -0.26593393842E+03  0.29641957859E+03  0.47000000000E+01 0.  1.
        1    1    6    6  502    0 -0.26247301368E+02  0.29730698750E+02 -0.27914592285E+03  0.28194907611E+03  0.00000000000E+00 0. -1.
       -2    1    6    6    0  502 -0.11769424621E+02  0.32113355196E+02 -0.34348772060E+02  0.48472931415E+02  0.00000000000E+00 0.  1.
</event>
<event>
12   0  0.1523332E-01  0.2273210E+03  0.7957747E-01  0.1135476E+00
       21   -1    0    0  501  503  0.00000000000E+00  0.00000000000E+00  0.15571535245E+03  0.15571535245E+03  0.00000000000E+00 0. -1.
       21   -1    0    0  503  504  0.00000000000E+00  0.00000000000E+00 -0.10291960057E+04  0.10291960057E+04  0.00000000000E+00 0. -1.
        6    2    1    2  501    0 -0.19393722678E+02 -0.14564079917E+03  0.51999599249E+02  0.23192209898E+03  0.17174557581E+03 0.  0.
       24    2    3    3    0    0  0.46119036188E+02 -0.12084291516E+03  0.16840630499E+02  0.15340395006E+03  0.80741497484E+02 0.  0.
       -6    2    1    2    0  504  0.19393722678E+02  0.14564079917E+03 -0.92548025247E+03  0.95298925915E+03  0.17345740535E+03 0.  0.
      -24    2    5    5    0    0  0.18049555966E+02  0.40759013505E+02 -0.19574733177E+03  0.21574152514E+03  0.78995595573E+02 0.  0.
        5    1    3    3  501    0 -0.65512758866E+02 -0.24797884014E+02  0.35158968750E+02  0.78518148917E+02  0.47000000000E+01 0. -1.
      -11    1    4    4    0    0  0.50941765310E+02 -0.59719915712E+02 -0.21124907483E+02  0.81288335582E+02  0.00000000000E+00 0.  1.
       12    1    4    4    0    0 -0.48227291223E+01 -0.61122999448E+02  0.37965537981E+02  0.72115614480E+02  0.00000000000E+00 0. -1.
       -5    1    5    5    0  504  0.13441667113E+01  0.10488178567E+03 -0.72973292070E+03  0.73724773401E+03  0.47000000000E+01 0.  1.
        3    1    6    6  502    0  0.42467854173E+02  0.48955022606E+02 -0.14534554266E+03  0.15913968596E+03  0.00000000000E+00 0. -1.
       -4    1    6    6    0  502 -0.24418298207E+02 -0.81960091008E+01 -0.50401789118E+02  0.56601839182E+02  0.00000000000E+00 0.  1.
</event>
<event>
12   0  0.1523332E-01  0.2205092E+03  0.7957747E-01  0.1140283E+00
       -2   -1    0    0    0  501  0.00000000000E+00  0.00000000000E+00  0.38383659932E+03  0.38383659932E+03  0.00000000000E+00 0.  1.
        2   -1    0    0  502    0  0.00000000000E+00  0.00000000000E+00 -0.22244283346E+03  0.22244283346E+03  0.00000000000E+00 0. -1.
        6    2    1    2  502    0  0.64657698882E+01 -0.13697845711E+03  0.27966918912E+03  0.35636389948E+03  0.17313425315E+03 0.  0.
       24    2    3    3    0    0  0.52549107283E+02 -0.58961543596E+02  0.22103331917E+03  0.24833349623E+03  0.81092076494E+02 0.  0.
       -6    2    1    2    0  501 -0.64657698882E+01  0.13697845711E+03 -0.11827542326E+03  0.24991553330E+03  0.17223180352E+03 0.  0.
      -24    2    5    5    0    0 -0.34965484853E+02  0.12717104581E+03 -0.14349946855E+03  0.21033319469E+03  0.79075250818E+02 0.  0.
        5    1    3    3  502    0 -0.46083337395E+02 -0.78016913518E+02  0.58635869955E+02  0.10803040325E+03  0.47000000000E+01 0. -1.
      -11    1    4    4    0    0  0.11079719723E+02 -0.68876680087E+02  0.15109714010E+03  0.16642446633E+03  0.00000000000E+00 0.  1.
       12    1    4    4    0    0  0.41469387560E+02  0.99151364909E+01  0.69936179069E+02  0.81909029899E+02  0.00000000000E+00 0. -1.
       -5    1    5    5    0  501  0.28499714965E+02  0.98074113071E+01  0.25224045285E+02  0.39582338614E+02  0.47000000000E+01 0.  1.
        1    1    6    6  503    0 -0.22170337735E+02  0.20317622119E+02 -0.79797768530E+02  0.85276101613E+02  0.00000000000E+00 0. -1.
       -2    1    6    6    0  503 -0.12795147118E+02  0.10685342369E+03 -0.63701700019E+02  0.12505709308E+03  0.00000000000E+00 0.  1.
</event>
<event>
12   0  0.1523332E-01  0.1741575E+03  0.7957747E-01  0.1178993E+00
       21   -1    0    0  504  503  0.00000000000E+00  0.00000000000E+00  0.95441351038E+02  0.95441351038E+02  0.00000000000E+00 0.  1.
       21   -1    0    0  501  504  0.00000000000E+00  0.00000000000E+00 -0.35679676759E+03  0.35679676759E+03  0.00000000000E+00 0.  1.
        6    2    1    2  501    0 -0.10828181190E+02 -0.98552574422E+01 -0.20857351411E+03  0.27172366502E+03  0.17354095695E+03 0.  0.
       24    2    3    3    0    0 -0.83066107859E+00  0.61800592090E+02 -0.13314408305E+03  0.16709957482E+03  0.79843082821E+02 0.  0.
       -6    2    1    2    0  503  0.10828181190E+02  0.98552574422E+01 -0.52781902446E+02  0.18051445361E+03  0.17200338115E+03 0.  0.
      -24    2    5    5    0    0 -0.25006601460E+02 -0.10182759879E+02 -0.90782141357E+02  0.12437389836E+03  0.80612968495E+02 0.  0.
        5    1    3    3  501    0 -0.99975201111E+01 -0.71655849532E+02 -0.75429431056E+02  0.10462409020E+03  0.47000000000E+01 0. -1.
        2    1    4    4  502    0  0.39096592725E+02  0.29521214990E+02 -0.74392475291E+02  0.89074609609E+02  0.00000000000E+00 0. -1.
       -1    1    4    4    0  502 -0.39927253804E+02  0.32279377100E+02 -0.58751607759E+02  0.78024965214E+02  0.00000000000E+00 0.  1.
       -5    1    5    5    0  503  0.35834782649E+02  0.20038017321E+02  0.38000238910E+02  0.56140555242E+02  0.47000000000E+01 0.  1.
       13    1    6    6    0    0  0.29150992089E+02  0.58769763056E+00 -0.38827343983E+02  0.48556033292E+02  0.00000000000E+00 0. -1.
      -14    1    6    6    0    0 -0.54157593548E+02 -0.10770457510E+02 -0.51954797374E+02  0.75817865072E+02  0.00000000000E+00 0.  1.
</event>
<event>
12   0  0.1523332E-01  0.2105900E+03  0.7957747E-01  0.1147632E+00
       21   -1    0    0  501  503  0.00000000000E+00  0.00000000000E+00  0.57935769430E+02  0.57935769430E+02  0.00000000000E+00 0.  1.
       21   -1    0    0  503  504  0.00000000000E+00  0.00000000000E+00 -0.85247600206E+03  0.85247600206E+03  0.00000000000E+00 0.  1.
        6    2    1    2  501    0  0.10149501027E+03  0.65380468989E+02 -0.54283962257E+03  0.58223295550E+03  0.17246598448E+03 0.  0.
       24    2    3    3    0    0  0.61239274768E+02  0.40842893775E+02 -0.51737333072E+03  0.52844411968E+03  0.78483332903E+02 0.  0.
       -6    2    1    2    0  504 -0.10149501027E+03 -0.65380468989E+02 -0.25170061005E+03  0.32817881598E+03  0.17254650192E+03 0.  0.
      -24    2    5    5    0    0 -0.68775386699E+02  0.29422898669E+02 -0.10852236378E+03  0.15330642682E+03  0.78294292785E+02 0.  0.
        5    1    3    3  501    0  0.40255735498E+02  0.24537575213E+02 -0.25466291854E+02  0.53788835818E+02  0.47000000000E+01 0. -1.
      -11    1    4    4    0    0  0.55782143869E+01  0.14065590929E+02 -0.12005214140E+02  0.19315343395E+02  0.00000000000E+00 0.  1.
       12    1    4    4    0    0  0.55661060381E+02  0.26777302846E+02 -0.50536811658E+03  0.50912877629E+03  0.00000000000E+00 0. -1.
       -5    1    5    5    0  504 -0.32719623566E+02 -0.94803367658E+02 -0.14317824627E+03  0.17487238916E+03  0.47000000000E+01 0.  1.
        3    1    6    6  502    0 -0.60265690563E+01  0.41715873019E+02 -0.58603612761E+02  0.72186681770E+02  0.00000000000E+00 0. -1.
       -4    1    6    6    0  502 -0.62748817643E+02 -0.12292974349E+02 -0.49918751017E+02  0.81119745051E+02  0.00000000000E+00 0.  1.
</event>
<event>
12   0  0.1523332E-01  0.1869056E+03  0.7957747E-01  0.1167132E+00
       21   -1    0    0  501  503  0.00000000000E+00  0.00000000000E+00  0.32360535148E+03  0.32360535148E+03  0.00000000000E+00 0. -1.
       21   -1    0    0  503  504  0.00000000000E+00  0.00000000000E+00 -0.10648163687E+03  0.10648163687E+03  0.00000000000E+00 0. -1.
        6    2    1    2  501    0 -0.45684576262E+02  0.45634867658E+02  0.10022295736E+03  0.21208096765E+03  0.17539690420E+03 0.  0.
       24    2    3    3    0    0  0.35593086917E+02 -0.21182799533E+01  0.69680888109E+02  0.11287749174E+03  0.81329865538E+02 0.  0.
       -6    2    1    2    0  504  0.45684576262E+02 -0.45634867658E+02  0.11690075725E+03  0.21800602070E+03  0.17231139359E+03 0.  0.
      -24    2    5    5    0    0  0.35425198767E+02  0.15542125712E+02 -0.16499211606E+01  0.84124607890E+02  0.74684168560E+02 0.  0.
        5    1    3    3  501    0 -0.81277663179E+02  0.47753147612E+02  0.30542069254E+02  0.99203475912E+02  0.47000000000E+01 0. -1.
      -13    1    4    4    0    0  0.43193000659E+02  0.12364295142E+02  0.81249633836E+02  0.92844031034E+02  0.00000000000E+00 0.  1.
       14    1    4    4    0    0 -0.75999137421E+01 -0.14482575095E+02 -0.11568745727E+02  0.20033460709E+02  0.00000000000E+00 0. -1.
       -5    1    5    5    0  504  0.10259377495E+02 -0.61176993371E+02  0.11855067841E+03  0.13388141281E+03  0.47000000000E+01 0.  1.
        1    1    6    6  502    0  0.15523977690E+02 -0.28316608278E+02  0.11365123941E+02  0.34234342842E+02  0.00000000000E+00 0. -1.
       -2    1    6    6    0  502  0.19901221077E+02  0.43858733990E+02 -0.13015045102E+02  0.49890265048E+02  0.00000000000E+00 0.  1.
</event>
<event>
12   0  0.1523332E-01  0.2238672E+03  0.7957747E-01  0.1137890E+00
       -1   -1    0    0    0  501  0.00000000000E+00  0.00000000000E+00  0.11851685257E+03  0.11851685257E+03  0.00000000000E+00 0.  1.
        1   -1    0    0  502    0  0.00000000000E+00  0.00000000000E+00 -0.43630326131E+03  0.43630326131E+03  0.00000000000E+00 0. -1.
        6    2    1    2  502    0 -0.13137288610E+03  0.25624705590E+02 -0.11439471206E+03  0.25629203713E+03  0.18623640195E+03 0.  0.
       24    2    3    3    0    0 -0.13634867989E+03 -0.38341315336E+02 -0.64958837895E+02  0.17516000886E+03  0.80002244433E+02 0.  0.
       -6    2    1    2    0  501  0.13137288610E+03 -0.25624705590E+02 -0.20339169668E+03  0.29852807675E+03  0.17272917991E+03 0.  0.
      -24    2    5    5    0    0  0.10916505457E+03  0.39964239662E+02 -0.17120153131E+03  0.22202059825E+03  0.80430293627E+02 0.  0.
        5    1    3    3  502    0  0.49757937883E+01  0.63966020926E+02 -0.49435874161E+02  0.81132028269E+02  0.47000000000E+01 0. -1.
        2    1    4    4  503    0 -0.79839526450E+02 -0.47698757822E+02 -0.71773370553E+02  0.11747739443E+03  0.00000000000E+00 0. -1.
       -1    1    4    4    0  503 -0.56509153441E+02  0.93574424855E+01  0.68145326572E+01  0.57682614433E+02  0.00000000000E+00 0.  1.
       -5    1    5    5    0  501  0.22207831535E+02 -0.65588945252E+02 -0.32190165368E+02  0.76507478505E+02  0.47000000000E+01 0.  1.
       11    1    6    6    0    0  0.97563167638E+02  0.14467231888E+02 -0.16663757828E+03  0.19363872282E+03  0.00000000000E+00 0. -1.
      -12    1    6    6    0    0  0.11601886929E+02  0.25497007774E+02 -0.45639530274E+01  0.28381875431E+02  0.00000000000E+00 0.  1.
</event>
<event>
12   0  0.1523332E-01  0.1769203E+03  0.7957747E-01  0.1176330E+00
       21   -1    0    0  504  503  0.00000000000E+00  0.00000000000E+00  0.51175832428E+03  0.51175832428E+03  0.00000000000E+00 0. -1.
       21   -1    0    0  501  504  0.00000000000E+00  0.00000000000E+00 -0.87387601504E+02  0.87387601504E+02  0.00000000000E+00 0. -1.
        6    2    1    2  501    0 -0.15879072320E+02 -0.37484347298E+02  0.46339882101E+02  0.18288843533E+03  0.17217309277E+03 0.  0.
       24    2    3    3    0    0  0.26858016551E+02 -0.73741357104E+02  0.60219468177E+02  0.12495949235E+03  0.76350177340E+02 0.  0.
       -6    2    1    2    0  503  0.15879072320E+02  0.37484347298E+02  0.37803084068E+03  0.41625749046E+03  0.16942774457E+03 0.  0.
      -24    2    5    5    0    0  0.71952000606E+02  0.22234196039E+02  0.19492473812E+03  0.22409434313E+03  0.80939305802E+02 0.  0.
        5    1    3    3  501    0 -0.42737088870E+02  0.36257009806E+02 -0.13879586076E+02  0.57928942980E+02  0.47000000000E+01 0. -1.
        4    1    4    4  502    0  0.32275456746E+02 -0.86982499713E+01 -0.36676092274E+01  0.33627607976E+02  0.00000000000E+00 0. -1.
       -3    1    4    4    0  502 -0.54174401953E+01 -0.65043107133E+02  0.63887077404E+02  0.91331884372E+02  0.00000000000E+00 0.  1.
       -5    1    5    5    0  503 -0.56072928286E+02  0.15250151259E+02  0.18310610255E+03  0.19216314733E+03  0.47000000000E+01 0.  1.
       11    1    6    6    0    0  0.35840211621E+02  0.31450428723E+02  0.17590342694E+03  0.18225165526E+03  0.00000000000E+00 0. -1.
      -12    1    6    6    0    0  0.36111788985E+02 -0.92162326838E+01  0.19021311182E+02  0.41842687864E+02  0.00000000000E+00 0.  1.
</event>
<event>
12   0  0.1523332E-01  0.1996547E+03  0.7957747E-01  0.1156266E+00
       21   -1    0    0  504  503  0.00000000000E+00  0.00000000000E+00  0.16516240457E+03  0.16516240457E+03  0.00000000000E+00 0. -1.
       21   -1    0    0  501  504  0.00000000000E+00  0.00000000000E+00 -0.35592158221E+03  0.35592158221E+03  0.00000000000E+00 0. -1.
        6    2    1    2  501    0 -0.98778105186E+02 -0.14386820316E+02 -0.24391410519E+03  0.31520800021E+03  0.17291008653E+03 0.  0.
       24    2    3    3    0    0  0.11708292030E+02 -0.29697171601E+02 -0.12783902351E+03  0.15415780488E+03  0.80017540405E+02 0.  0.
       -6    2    1    2    0  503  0.98778105186E+02  0.14386820316E+02  0.53154927558E+02  0.20587598657E+03  0.17203308071E+03 0.  0.
      -24    2    5    5    0    0  0.86700866464E+02  0.38171533796E+02  0.94507663185E+02  0.15644208085E+03  0.81045172726E+02 0.  0.
        5    1    3    3  501    0 -0.11048639722E+03  0.15310351286E+02 -0.11607508169E+03  0.16105019533E+03  0.47000000000E+01 0. -1.
      -13    1    4    4    0    0  0.39304981311E+02  0.66554910697E+01 -0.69055517261E+02  0.79736074530E+02  0.00000000000E+00 0.  1.
       14    1    4    4    0    0 -0.27596689281E+02 -0.36352662671E+02 -0.58783506245E+02  0.74421730355E+02  0.00000000000E+00 0. -1.
       -5    1    5    5    0  503  0.12077238723E+02 -0.23784713481E+02 -0.41352735627E+02  0.49433905716E+02  0.47000000000E+01 0.  1.
        1    1    6    6  502    0  0.76558789524E+02  0.17810590991E+02  0.23742378974E+02  0.82110693361E+02  0.00000000000E+00 0. -1.
       -2    1    6    6    0  502  0.10142076939E+02  0.20360942806E+02  0.70765284211E+02  0.74331387489E+02  0.00000000000E+00 0.  1.
</event>
<event>
12   0  0.1523332E-01  0.2224701E+03  0.7957747E-01  0.1138880E+00
       21   -1    0    0  501  503  0.00000000000E+00  0.00000000000E+00  0.17691643144E+03  0.17691643144E+03  0.00000000000E+00 0.  1.
       21   -1    0    0  503  504  0.00000000000E+00  0.00000000000E+00 -0.37083974163E+03  0.37083974163E+03  0.00000000000E+00 0. -1.
        6    2    1    2  501    0  0.12318209438E+03 -0.45495784094E+02  0.42351439342E+02  0.22646544342E+03  0.17958078377E+03 0.  0.
       24    2    3    3    0    0  0.12654600327E+03 -0.15939950053E+02  0.86214548101E+02  0.17325900096E+03  0.79484339075E+02 0.  0.
       -6    2    1    2    0  504 -0.12318209438E+03  0.45495784094E+02 -0.23627474953E+03  0.32129072966E+03  0.17366139742E+03 0.  0.
      -24    2    5    5    0    0 -0.64297484395E+02 -0.39192305249E+02 -0.15116139232E+03  0.18747801223E+03  0.81412746246E+02 0.  0.
        5    1    3    3  501    0 -0.33639088853E+01 -0.29555834041E+02 -0.43863108760E+02  0.53206442457E+02  0.47000000000E+01 0. -1.
        4    1    4    4  502    0  0.10157660380E+03 -0.18532307617E+02  0.23765349426E+02  0.10595303062E+03  0.00000000000E+00 0. -1.
       -3    1    4    4    0  502  0.24969399469E+02  0.25923575638E+01  0.62449198676E+02  0.67305970336E+02  0.00000000000E+00 0.  1.
       -5    1    5    5    0  504 -0.58884609989E+02  0.84688089343E+02 -0.85113357210E+02  0.13381271743E+03  0.47000000000E+01 0.  1.
       13    1    6    6    0    0 -0.42364591265E+02  0.19164534949E+02 -0.82770153488E+02  0.94936485617E+02  0.00000000000E+00 0. -1.
      -14    1    6    6    0    0 -0.21932893131E+02 -0.58356840198E+02 -0.68391238832E+02  0.92541526614E+02  0.00000000000E+00 0.  1.
</event>
<event>
12   0  0.1523332E-01  0.1808340E+03  0.7957747E-01  0.1172647E+00
       21   -1    0    0  501  503  0.00000000000E+00  0.00000000000E+00  0.37231009924E+03  0.37231009924E+03  0.00000000000E+00 0.  1.
       21   -1    0    0  503  504  0.00000000000E+00  0.00000000000E+00 -0.21007782199E+03  0.21007782199E+03  0.00000000000E+00 0.  1.
        6    2    1    2  501    0 -0.20600962481E+02 -0.44761230473E+02  0.30383869647E+03  0.35358008454E+03  0.17399125066E+03 0.  0.
       24    2    3    3    0    0  0.34209967932E+02 -0.76493309019E+02  0.18167668959E+03  0.21589635702E+03  0.81137347760E+02 0.  0.
       -6    2    1    2    0  504  0.20600962481E+02  0.44761230473E+02 -0.14160641922E+03  0.22880783669E+03  0.17283715098E+03 0.  0.
      -24    2    5    5    0    0 -0.10559301883E+02 -0.23681833040E+02 -0.12473781750E+03  0.15159349384E+03  0.82150691941E+02 0.  0.
        5    1    3    3  501    0 -0.54810930413E+02  0.31732078545E+02  0.12216200687E+03  0.13768372752E+03  0.47000000000E+01 0. -1.
      -11    1    4    4    0    0 -0.25570067049E+02 -0.37035332797E+02  0.71228404602E+02  0.84255147181E+02  0.00000000000E+00 0.  1.
       12    1    4    4    0    0  0.59780034981E+02 -0.39457976221E+02  0.11044828499E+03  0.13164120984E+03  0.00000000000E+00 0. -1.
       -5    1    5    5    0  504  0.31160264364E+02  0.68443063513E+02 -0.16868601718E+02  0.77214342853E+02  0.47000000000E+01 0.  1.
        3    1    6    6  502    0 -0.38254343055E+02  0.31808834597E+01 -0.96283020323E+02  0.10365294393E+03  0.00000000000E+00 0. -1.
       -4    1    6    6    0  502  0.27695041172E+02 -0.26862716499E+02 -0.28454797180E+02  0.47940549911E+02  0.00000000000E+00 0.  1.
</event>
<event>
12   0  0.1523332E-01  0.1884689E+03  0.7957747E-01  0.1165749E+00
       -1   -1    0    0    0  501  0.00000000000E+00  0.00000000000E+00  0.12847317720E+03  0.12847317720E+03  0.00000000000E+00 0. -1.
        1   -1    0    0  502    0  0.00000000000E+00  0.00000000000E+00 -0.27745443099E+03  0.27745443099E+03  0.00000000000E+00 0.  1.
        6    2    1    2  502    0  0.21152554854E+02 -0.69341639781E+02 -0.63268453017E+02  0.20039736325E+03  0.17578541597E+03 0.  0.
       24    2    3    3    0    0 -0.29788898210E+02  0.31571949488E+01  0.61992400087E+01  0.87707687363E+02  0.82200130835E+02 0.  0.
       -6    2    1    2    0  501 -0.21152554854E+02  0.69341639781E+02 -0.85712800778E+02  0.20553024494E+03  0.17216359599E+03 0.  0.
      -24    2    5    5    0    0  0.24915487016E+01  0.91532335999E+02 -0.11304004019E+02  0.12422692602E+03  0.83187572953E+02 0.  0.
        5    1    3    3  502    0  0.50941453064E+02 -0.72498834730E+02 -0.69467693025E+02  0.11268967589E+03  0.47000000000E+01 0. -1.
        4    1    4    4  503    0  0.46589765871E+01  0.25113659916E+02 -0.25430766667E+02  0.36043388721E+02  0.00000000000E+00 0. -1.
       -3    1    4    4    0  503 -0.34447874797E+02 -0.21956464967E+02  0.31630006676E+02  0.51664298642E+02  0.00000000000E+00 0.  1.
       -5    1    5    5    0  501 -0.23644103556E+02 -0.22190696217E+02 -0.74408796760E+02  0.81303318916E+02  0.47000000000E+01 0.  1.
       13    1    6    6    0    0 -0.37995876091E+02  0.43182911935E+02  0.84640420590E+01  0.58138545657E+02  0.00000000000E+00 0. -1.
      -14    1    6    6    0    0  0.40487424793E+02  0.48349424063E+02 -0.19768046078E+02  0.66088380366E+02  0.00000000000E+00 0.  1.
</event>
<event>
12   0  0.1523332E-01  0.1880874E+03  0.7957747E-01  0.1166085E+00
       21   -1    0    0  504  503  0.00000000000E+00  0.00000000000E+00  0.27627808928E+03  0.27627808928E+03  0.00000000000E+00 0. -1.
       21   -1    0    0  501  504  0.00000000000E+00  0.00000000000E+00 -0.12733478419E+03  0.12733478419E+03  0.00000000000E+00 0. -1.
        6    2    1    2  501    0  0.60475518717E+02 -0.35201411477E+02  0.79635106153E+02  0.20316209571E+03  0.17331087464E+03 0.  0.
       24    2    3    3    0    0 -0.21421278163E+02  0.23181651958E+02  0.32612141485E+02  0.92036416225E+02  0.80068033532E+02 0.  0.
       -6    2    1    2    0  503 -0.60475518717E+02  0.35201411477E+02  0.69308198942E+02  0.20045077776E+03  0.17458654052E+03 0.  0.
      -24    2    5    5    0    0 -0.22017630934E+02  0.21860909610E+02  0.11401734921E+03  0.13980445685E+03  0.74717165320E+02 0.  0.
        5    1    3    3  501    0  0.81896796880E+02 -0.58383063435E+02  0.47022964667E+02  0.11112567949E+03  0.47000000000E+01 0. -1.
      -13    1    4    4    0    0 -0.43544160797E+02  0.13358940237E+02  0.45697880401E+02  0.64520163491E+02  0.00000000000E+00 0.  1.
       14    1    4    4    0    0  0.22122882633E+02  0.98227117204E+01 -0.13085738916E+02  0.27516252734E+02  0.00000000000E+00 0. -1.
       -5    1    5    5    0  503 -0.38457887783E+02  0.13340501867E+02 -0.44709150265E+02  0.60646320912E+02  0.47000000000E+01 0.  1.
        3    1    6    6  502    0 -0.41232990930E+02  0.10603398663E+02  0.10893868819E+03  0.11696251275E+03  0.00000000000E+00 0. -1.
       -4    1    6    6    0  502  0.19215359995E+02  0.11257510946E+02  0.50786610170E+01  0.22841944098E+02  0.00000000000E+00 0.  1.
</event>
<event>
12   0  0.1523332E-01  0.2025468E+03  0.7957747E-01  0.1153925E+00
       21   -1    0    0  504  503  0.00000000000E+00  0.00000000000E+00  0.16651622370E+03  0.16651622370E+03  0.00000000000E+00 0.  1.
       21   -1    0    0  501  504  0.00000000000E+00  0.00000000000E+00 -0.59612030450E+03  0.59612030450E+03  0.00000000000E+00 0.  1.
        6    2    1    2  501    0  0.93757478141E+02 -0.48177829732E+02 -0.51608488347E+03  0.55440852757E+03  0.17295560271E+03 0.  0.
       24    2    3    3    0    0  0.11363490099E+03 -0.66531345340E+01 -0.26932300457E+03  0.30334493576E+03  0.80784369419E+02 0.  0.
       -6    2    1    2    0  503 -0.93757478141E+02  0.48177829732E+02  0.86480802680E+02  0.20822800062E+03  0.15737980501E+03 0.  0.
      -24    2    5    5    0    0 -0.74060301963E+02  0.61721561411E+02  0.11532631809E+03  0.17047134325E+03  0.80410445560E+02 0.  0.
        5    1    3    3  501    0 -0.19877422848E+02 -0.41524695198E+02 -0.24676187891E+03  0.25106359181E+03  0.47000000000E+01 0. -1.
      -11    1    4    4    0    0  0.21849696678E+02 -0.34596604574E+02 -0.10998954255E+03  0.11735430867E+03  0.00000000000E+00 0.  1.
       12    1    4    4    0    0  0.91785204312E+02  0.27943470040E+02 -0.15933346201E+03  0.18599062709E+03  0.00000000000E+00 0. -1.
       -5    1    5    5    0  503 -0.19697176178E+02 -0.13543731679E+02 -0.28845515407E+02  0.37756657376E+02  0.47000000000E+01 0.  1.
        1    1    6    6  502    0 -0.20363333151E+02 -0.14864240817E+02  0.47743003557E+01  0.25659402486E+02  0.00000000000E+00 0. -1.
       -2    1    6    6    0  502 -0.53696968813E+02  0.76585802228E+02  0.11055201773E+03  0.14481194076E+03  0.00000000000E+00 0.  1.
</event>
<event>
12   0  0.1523332E-01  0.2178977E+03  0.7957747E-01  0.1142176E+00
       21   -1    0    0  501  503  0.00000000000E+00  0.00000000000E+00  0.11544730580E+03  0.11544730580E+03  0.00000000000E+00 0.  1.
       21   -1    0    0  503  504  0.00000000000E+00  0.00000000000E+00 -0.42159512209E+03  0.42159512209E+03  0.00000000000E+00 0.  1.
        6    2    1    2  501    0  0.24595712423E+01 -0.13113791696E+03 -0.19821904766E+03  0.29387988846E+03  0.17283343203E+03 0.  0.
       24    2    3    3    0    0 -0.85195037897E+01 -0.16330802230E+03 -0.17227344491E+03  0.25085989231E+03  0.80687382261E+02 0.  0.
       -6    2    1    2    0  504 -0.24595712423E+01  0.13113791696E+03 -0.10792876863E+03  0.24316253943E+03  0.17400057106E+03 0.  0.
      -24    2    5    5    0    0  0.24930935699E+02  0.13451966923E+03 -0.29521491022E+02  0.15990710537E+03  0.77341262912E+02 0.  0.
        5    1    3    3  501    0  0.10979075032E+02  0.32170105343E+02 -0.25945602749E+02  0.43019996145E+02  0.47000000000E+01 0. -1.
      -11    1    4    4    0    0 -0.44011063250E+01 -0.30384584025E+02 -0.88529135050E+02  0.93701656527E+02  0.00000000000E+00 0.  1.
       12    1    4    4    0    0 -0.41183974646E+01 -0.13292343827E+03 -0.83744309863E+02  0.15715823578E+03  0.00000000000E+00 0. -1.
       -5    1    5    5    0  504 -0.27390506941E+02 -0.33817522781E+01 -0.78407277605E+02  0.83255434059E+02  0.47000000000E+01 0.  1.
        3    1    6    6  502    0  0.45741711151E+02  0.47465691600E+02 -0.24275271305E+02  0.70246600025E+02  0.00000000000E+00 0. -1.
       -4    1    6    6    0  502 -0.20810775452E+02  0.87053977634E+02 -0.52462197169E+01  0.89660505342E+02  0.00000000000E+00 0.  1.
</event>
<event>
12   0  0.1523332E-01  0.2068094E+03  0.7957747E-01  0.1150551E+00
       21   -1    0    0  504  503  0.00000000000E+00  0.00000000000E+00  0.18567622774E+03  0.18567622774E+03  0.00000000000E+00 0. -1.
       21   -1    0    0  501  504  0.00000000000E+00  0.00000000000E+00 -0.23217707718E+03  0.23217707718E+03  0.00000000000E+00 0. -1.
        6    2    1    2  501    0  0.40098485848E+02  0.10477963946E+03 -0.46504812831E+02  0.21197361819E+03  0.17373386480E+03 0.  0.
       24    2    3    3    0    0 -0.53686929026E+00  0.79513894266E+02  0.33105775555E+02  0.11897079161E+03  0.82068930003E+02 0.  0.
       -6    2    1    2    0  503 -0.40098485848E+02 -0.10477963946E+03  0.39633920711E-02  0.20587968674E+03  0.17262613934E+03 0.  0.
      -24    2    5    5    0    0 -0.91037576169E+02 -0.56866712192E+02 -0.12033900175E+02  0.13476400857E+03  0.80590694386E+02 0.  0.
        5    1    3    3  501    0  0.40635355138E+02  0.25265745199E+02 -0.79610588386E+02  0.93002826574E+02  0.47000000000E+01 0. -1.
        2    1    4    4  502    0  0.38042813325E+02  0.59789075824E+02  0.18431157460E+02  0.73223608208E+02  0.00000000000E+00 0. -1.
       -1    1    4    4    0  502 -0.38579682616E+02  0.19724818441E+02  0.14674618095E+02  0.45747183405E+02  0.00000000000E+00 0.  1.
       -5    1    5    5    0  503  0.50939090321E+02 -0.47912927273E+02  0.12037863568E+02  0.71115678172E+02  0.47000000000E+01 0.  1.
       13    1    6    6    0    0 -0.52375593258E+02 -0.43014674792E+02 -0.45630212231E+02  0.81704230520E+02  0.00000000000E+00 0. -1.
      -14    1    6    6    0    0 -0.38661982910E+02 -0.13852037399E+02  0.33596312056E+02  0.53059778047E+02  0.00000000000E+00 0.  1.
</event>
<event>
12   0  0.1523332E-01  0.1855243E+03  0.7957747E-01  0.1168366E+00
       21   -1    0    0  504  503  0.00000000000E+00  0.00000000000E+00  0.64768584937E+02  0.64768584937E+02  0.00000000000E+00 0.  1.
       21   -1    0    0  501  504  0.00000000000E+00  0.00000000000E+00 -0.10851509549E+04  0.10851509549E+04  0.00000000000E+00 0.  1.
        6    2    1    2  501    0  0.70678568733E+02 -0.59003740044E+01 -0.92153809902E+03  0.93970661811E+03  0.16966374300E+03 0.  0.
       24    2    3    3    0    0  0.92702835960E+02  0.43757754166E+02 -0.63205889029E+03  0.64513693140E+03  0.78706179075E+02 0.  0.
       -6    2    1    2    0  503 -0.70678568733E+02  0.59003740044E+01 -0.98844270985E+02  0.21021292177E+03  0.17143222591E+03 0.  0.
      -24    2    5    5    0    0 -0.85178441881E+02 -0.26765945634E+02 -0.18154260072E+02  0.12183700524E+03  0.80888168981E+02 0.  0.
        5    1    3    3  501    0 -0.22024267226E+02 -0.49658128170E+02 -0.28947920873E+03  0.29456968671E+03  0.47000000000E+01 0. -1.
        4    1    4    4  502    0  0.92268604463E+02  0.73187525427E+01 -0.43526005614E+03  0.44499255722E+03  0.00000000000E+00 0. -1.
       -3    1    4    4    0  502  0.43423149628E+00  0.36439001623E+02 -0.19679883414E+03  0.20014437418E+03  0.00000000000E+00 0.  1.
       -5    1    5    5    0  503  0.14499873148E+02  0.32666319638E+02 -0.80690010913E+02  0.88375916523E+02  0.47000000000E+01 0.  1.
       13    1    6    6    0    0 -0.10832330656E+02 -0.95941376264E+01  0.28809240546E+02  0.32239094359E+02  0.00000000000E+00 0. -1.
      -14    1    6    6    0    0 -0.74346111225E+02 -0.17171808008E+02 -0.46963500618E+02  0.89597910885E+02  0.00000000000E+00 0.  1.
</event>
<event>
12   0  0.1523332E-01  0.2540536E+03  0.7957747E-01  0.1118251E+00
       -2   -1    0    0    0  501  0.00000000000E+00  0.00000000000E+00  0.57972683526E+02  0.57972683526E+02  0.00000000000E+00 0.  1.
        2   -1    0    0  502    0  0.00000000000E+00  0.00000000000E+00 -0.11133673982E+04  0.11133673982E+04  0.00000000000E+00 0. -1.
        6    2    1    2  502    0 -0.10053843622E+03 -0.15642417246E+03 -0.53083248835E+03  0.58852692720E+03  0.17321753509E+03 0.  0.
       24    2    3    3    0    0 -0.32382925178E+02 -0.12920966609E+02 -0.12296161207E+03  0.15078375422E+03  0.80003607869E+02 0.  0.
       -6    2    1    2    0  501  0.10053843622E+03  0.15642417246E+03 -0.52456222628E+03  0.58281315448E+03  0.17300041883E+03 0.  0.
      -24    2    5    5    0    0  0.21996967129E+02  0.14806468099E+03 -0.30716205515E+03  0.35146154357E+03  0.82278017524E+02 0.  0.
        5    1    3    3  502    0 -0.68155511039E+02 -0.14350320585E+03 -0.40787087628E+03  0.43774317298E+03  0.47000000000E+01 0. -1.
      -11    1    4    4    0    0 -0.56374018455E+02 -0.19134118692E+02 -0.67287427294E+02  0.89842875771E+02  0.00000000000E+00 0.  1.
       12    1    4    4    0    0  0.23991093277E+02  0.62131520824E+01 -0.55674184777E+02  0.60940878448E+02  0.00000000000E+00 0. -1.
       -5    1    5    5    0  501  0.78541469088E+02  0.83594914683E+01 -0.21740017113E+03  0.23135161091E+03  0.47000000000E+01 0.  1.
        1    1    6    6  503    0  0.45797092286E+02  0.54983795965E+02 -0.98555734785E+02  0.12179418845E+03  0.00000000000E+00 0. -1.
       -2    1    6    6    0  503 -0.23800125156E+02  0.93080885022E+02 -0.20860632036E+03  0.22966735512E+03  0.00000000000E+00 0.  1.
</event>
<event>
12   0  0.1523332E-01  0.2588739E+03  0.7957747E-01  0.1115390E+00
       21   -1    0    0  504  503  0.00000000000E+00  0.00000000000E+00  0.53455554776E+02  0.53455554776E+02  0.00000000000E+00 0.  1.
       21   -1    0    0  501  504  0.00000000000E+00  0.00000000000E+00 -0.14368377638E+04  0.14368377638E+04  0.00000000000E+00 0. -1.
        6    2    1    2  501    0  0.17619109755E+03 -0.58783661584E+02 -0.96964384165E+03  0.10022409514E+04  0.17256570691E+03 0.  0.
       24    2    3    3    0    0  0.10751420107E+03 -0.34270640820E+02 -0.35485972447E+03  0.38312948722E+03  0.90160965324E+02 0.  0.
       -6    2    1    2    0  503 -0.17619109755E+03  0.58783661584E+02 -0.41373836739E+03  0.48805236723E+03  0.18032430448E+03 0.  0.
      -24    2    5    5    0    0 -0.17253003145E+03  0.10007560199E+03 -0.36585845237E+03  0.42454643043E+03  0.81274390488E+02 0.  0.
        5    1    3    3  501    0  0.68676896483E+02 -0.24513020765E+02 -0.61478411717E+03  0.61911146414E+03  0.47000000000E+01 0. -1.
        2    1    4    4  502    0  0.56089550725E+02 -0.58337944385E+02 -0.14871868263E+03  0.16931213784E+03  0.00000000000E+00 0. -1.
       -1    1    4    4    0  502  0.51424650346E+02  0.24067303565E+02 -0.20614104184E+03  0.21381734938E+03  0.00000000000E+00 0.  1.
       -5    1    5    5    0  503 -0.36610661077E+01 -0.41291940409E+02 -0.47879915013E+02  0.63505936805E+02  0.47000000000E+01 0.  1.
       11    1    6    6    0    0 -0.53167556508E+02  0.52317238771E+02 -0.20793601953E+03  0.22091009655E+03  0.00000000000E+00 0. -1.
      -12    1    6    6    0    0 -0.11936247494E+03  0.47758363223E+02 -0.15792243284E+03  0.20363633388E+03  0.00000000000E+00 0.  1.
</event>
<event>
12   0  0.1523332E-01  0.1860864E+03  0.7957747E-01  0.1167862E+00
       21   -1    0    0  501  503  0.00000000000E+00  0.00000000000E+00  0.24885606890E+03  0.24885606890E+03  0.00000000000E+00 0. -1.
       21   -1    0    0  503  504  0.00000000000E+00  0.00000000000E+00 -0.43671902134E+03  0.43671902134E+03  0.00000000000E+00 0. -1.
        6    2    1    2  501    0 -0.24717508356E+01  0.37078866337E+02  0.19142727995E+03  0.26696918441E+03  0.18233812008E+03 0.  0.
       24    2    3    3    0    0  0.60322903421E+02 -0.19386761415E+02  0.10225167282E+03  0.14406306321E+03  0.79272078263E+02 0.  0.
       -6    2    1    2    0  504  0.24717508356E+01 -0.37078866337E+02 -0.37929023238E+03  0.41860590583E+03  0.17317295439E+03 0.  0.
      -24    2    5    5    0    0  0.21905561968E+02 -0.98609824912E+01 -0.37454121079E+03  0.38450122254E+03  0.83564220418E+02 0.  0.
        5    1    3    3  501    0 -0.62794654256E+02  0.56465627752E+02  0.89175607123E+02  0.12290612119E+03  0.47000000000E+01 0. -1.
      -13    1    4    4    0    0  0.33153503920E+02 -0.30255564409E+01 -0.36720493510E+01  0.33493174833E+02  0.00000000000E+00 0.  1.
       14    1    4    4    0    0  0.27169399501E+02 -0.16361204974E+02  0.10592372217E+03  0.11056988838E+03  0.00000000000E+00 0. -1.
       -5    1    5    5    0  504 -0.19433811133E+02 -0.27217883846E+02 -0.47490215943E+01  0.34104683290E+02  0.47000000000E+01 0.  1.
        3    1    6    6  502    0 -0.18474742193E+01 -0.44723234248E+02 -0.19418233350E+03  0.19927458314E+03  0.00000000000E+00 0. -1.
       -4    1    6    6    0  502  0.23753036188E+02  0.34862251757E+02 -0.18035887729E+03  0.18522663940E+03  0.00000000000E+00 0.  1.
</event>
<event>
12   0  0.1523332E-01  0.2081412E+03  0.7957747E-01  0.1149515E+00
       21   -1    0    0  504  503  0.00000000000E+00  0.00000000000E+00  0.16424660429E+03  0.16424660429E+03  0.00000000000E+00 0.  1.
       21   -1    0    0  501  504  0.00000000000E+00  0.00000000000E+00 -0.26027000007E+03  0.26027000007E+03  0.00000000000E+00 0.  1.
        6    2    1    2  501    0  0.96881951411E+02 -0.56206486967E+02 -0.38519338965E+02  0.20857805308E+03  0.17168512768E+03 0.  0.
       24    2    3    3    0    0 -0.47640166984E+01 -0.36617503628E+02 -0.53022578975E+02  0.10394505125E+03  0.81422615849E+02 0.  0.
       -6    2    1    2    0  503 -0.96881951411E+02  0.56206486967E+02 -0.57504056812E+02  0.21593855128E+03  0.17543505833E+03 0.  0.
      -24    2    5    5    0    0  0.20061639884E+02  0.41726632562E+02 -0.17332149134E+02  0.91353873669E+02  0.76821517695E+02 0.  0.
        5    1    3    3  501    0  0.10164596811E+03 -0.19588983339E+02  0.14503240010E+02  0.10463300183E+03  0.47000000000E+01 0. -1.
      -13    1    4    4    0    0 -0.15216474310E+02 -0.56693910888E+02 -0.16496338142E+02  0.60974337178E+02  0.00000000000E+00 0.  1.
       14    1    4    4    0    0  0.10452457612E+02  0.20076407260E+02 -0.36526240833E+02  0.42970714074E+02  0.00000000000E+00 0. -1.
       -5    1    5    5    0  503 -0.11694359130E+03  0.14479854405E+02 -0.40171907678E+02  0.12458467761E+03  0.47000000000E+01 0.  1.
        1    1    6    6  502    0 -0.17232846725E+02  0.36600730311E+02  0.13548675320E+02  0.42663228528E+02  0.00000000000E+00 0. -1.
       -2    1    6    6    0  502  0.37294486609E+02  0.51259022512E+01 -0.30880824454E+02  0.48690645141E+02  0.00000000000E+00 0.  1.
</event>
<event>
12   0  0.1523332E-01  0.1985345E+03  0.7957747E-01  0.1157185E+00
       21   -1    0    0  501  503  0.00000000000E+00  0.00000000000E+00  0.24313728592E+03  0.24313728592E+03  0.00000000000E+00 0.  1.
       21   -1    0    0  503  504  0.00000000000E+00  0.00000000000E+00 -0.39925017967E+03  0.39925017967E+03  0.00000000000E+00 0.  1.
        6    2    1    2  501    0 -0.75340974045E+02 -0.62600301532E+01  0.17351206007E+03  0.25759069102E+03  0.17473144754E+03 0.  0.
       24    2    3    3    0    0 -0.77963927870E+01 -0.47931244874E+02  0.12548916309E+03  0.16470878089E+03  0.94990865217E+02 0.  0.
       -6    2    1    2    0  504  0.75340974045E+02  0.62600301532E+01 -0.32962495382E+03  0.38479677458E+03  0.18357695169E+03 0.  0.
      -24    2    5    5    0    0  0.48482921181E+02  0.32060598548E+02 -0.66094611962E+02  0.11860632506E+03  0.79501490472E+02 0.  0.
        5    1    3    3  501    0 -0.67544581258E+02  0.41671214721E+02  0.48022896988E+02  0.92881910126E+02  0.47000000000E+01 0. -1.
      -11    1    4    4    0    0 -0.38828704446E+02 -0.36389509999E+02  0.11983624269E+03  0.13112051627E+03  0.00000000000E+00 0.  1.
       12    1    4    4    0    0  0.31032311659E+02 -0.11541734875E+02  0.56529203989E+01  0.33588264615E+02  0.00000000000E+00 0. -1.
       -5    1    5    5    0  504  0.26858052864E+02 -0.25800568395E+02 -0.26353034186E+03  0.26619044952E+03  0.47000000000E+01 0.  1.
        3    1    6    6  502    0  0.41185081707E+02 -0.84661385153E+01 -0.15873567203E+01  0.42076194670E+02  0.00000000000E+00 0. -1.
       -4    1    6    6    0  502  0.72978394746E+01  0.40526737063E+02 -0.64507255241E+02  0.76530130385E+02  0.00000000000E+00 0.  1.
</event>
<event>
12   0  0.1523332E-01  0.2322201E+03  0.7957747E-01  0.1132132E+00
       21   -1    0    0  504  503  0.00000000000E+00  0.00000000000E+00  0.26985540829E+03  0.26985540829E+03  0.00000000000E+00 0.  1.
       21   -1    0    0  501  504  0.00000000000E+00  0.00000000000E+00 -0.20914346578E+03  0.20914346578E+03  0.00000000000E+00 0.  1.
        6    2    1    2  501    0  0.15408165132E+03  0.79181770245E+01  0.85417181232E+02  0.24743135270E+03  0.17355784813E+03 0.  0.
       24    2    3    3    0    0  0.88269374403E+02 -0.58147692924E+02  0.21809344300E+02  0.13445347042E+03  0.80183860962E+02 0.  0.
       -6    2    1    2    0  503 -0.15408165132E+03 -0.79181770245E+01 -0.24705238716E+02  0.23156752137E+03  0.17090732967E+03 0.  0.
      -24    2    5    5    0    0 -0.73078975400E+02  0.34920741618E+02 -0.67879069831E+02  0.13016399012E+03  0.75994087683E+02 0.  0.
        5    1    3    3  501    0  0.65812276916E+02  0.66065869948E+02  0.63607836932E+02  0.11297788228E+03  0.47000000000E+01 0. -1.
      -13    1    4    4    0    0 -0.88756250712E+01 -0.29648181711E+02  0.27534001041E+00  0.30949429903E+02  0.00000000000E+00 0.  1.
       14    1    4    4    0    0  0.97144999474E+02 -0.28499511213E+02  0.21534004290E+02  0.10350404052E+03  0.00000000000E+00 0. -1.
       -5    1    5    5    0  503 -0.81002675919E+02 -0.42838918642E+02  0.43173831115E+02  0.10140353125E+03  0.47000000000E+01 0.  1.
        3    1    6    6  502    0 -0.33166079779E+02 -0.59729828955E+01 -0.64678519408E+02  0.72931311831E+02  0.00000000000E+00 0. -1.
       -4    1    6    6    0  502 -0.39912895621E+02  0.40893724514E+02 -0.32005504235E+01  0.57232678292E+02  0.00000000000E+00 0.  1.
</event>
<event>
12   0  0.1523332E-01  0.1832558E+03  0.7957747E-01  0.1170419E+00
       21   -1    0    0  504  503  0.00000000000E+00  0.00000000000E+00  0.30370678091E+03  0.30370678091E+03  0.00000000000E+00 0.  1.
       21   -1    0    0  501  504  0.00000000000E+00  0.00000000000E+00 -0.11353123667E+03  0.11353123667E+03  0.00000000000E+00 0.  1.
        6    2    1    2  501    0 -0.46890958523E+02 -0.39394708110E+02  0.50936623930E+02  0.19020313960E+03  0.17271939566E+03 0.  0.
       24    2    3    3    0    0  0.21987203390E+02 -0.68424226563E+02  0.38336040173E+02  0.11425724543E+03  0.80123369024E+02 0.  0.
       -6    2    1    2    0  503  0.46890958523E+02  0.39394708110E+02  0.13923892032E+03  0.22703487798E+03  0.16854273604E+03 0.  0.
      -24    2    5    5    0    0 -0.38039621244E+02  0.24745187357E+02  0.86031642008E+02  0.12564002455E+03  0.79527575472E+02 0.  0.
        5    1    3    3  501    0 -0.68878161913E+02  0.29029518453E+02  0.12600583757E+02  0.75945894169E+02  0.47000000000E+01 0. -1.
        4    1    4    4  502    0 -0.25264301975E+02 -0.18800174028E+02  0.32864701419E+02  0.45517250544E+02  0.00000000000E+00 0. -1.
       -3    1    4    4    0  502  0.47251505365E+02 -0.49624052536E+02  0.54713387547E+01  0.68739994887E+02  0.00000000000E+00 0.  1.
       -5    1    5    5    0  503  0.84930579767E+02  0.14649520753E+02  0.53207278309E+02  0.10139485343E+03  0.47000000000E+01 0.  1.
       13    1    6    6    0    0  0.13204668758E+02 -0.19083887054E+02  0.14646600465E+02  0.27442320006E+02  0.00000000000E+00 0. -1.
      -14    1    6    6    0    0 -0.51244290002E+02  0.43829074412E+02  0.71385041543E+02  0.98197704543E+02  0.00000000000E+00 0.  1.
</event>
<event>
12   0  0.1523332E-01  0.2073209E+03  0.7957747E-01  0.1150152E+00
       21   -1    0    0  501  503  0.00000000000E+00  0.00000000000E+00  0.69946238994E+03  0.69946238994E+03  0.00000000000E+00 0.  1.
       21   -1    0    0  503  504  0.00000000000E+00  0.00000000000E+00 -0.90053835947E+02  0.90053835947E+02  0.00000000000E+00 0.  1.
        6    2    1    2  501    0  0.71315586790E+02  0.87774536654E+02  0.52911912553E+03  0.56828603728E+03  0.17375755799E+03 0.  0.
       24    2    3    3    0    0  0.37826804755E+01  0.87532230517E+02  0.42841558367E+03  0.44694335933E+03  0.92424315355E+02 0.  0.
       -6    2    1    2    0  504 -0.71315586790E+02 -0.87774536654E+02  0.80289428465E+02  0.22123018861E+03  0.17235463970E+03 0.  0.
      -24    2    5    5    0    0 -0.72037060260E+02  0.79881690817E+00  0.69895813330E+02  0.13192242456E+03  0.85604469627E+02 0.  0.
        5    1    3    3  501    0  0.67532906315E+02  0.24230613716E+00  0.10070354186E+03  0.12134267795E+03  0.47000000000E+01 0. -1.
        2    1    4    4  502    0  0.30415171778E+02  0.43423723771E+02  0.34388022166E+03  0.34794296847E+03  0.00000000000E+00 0. -1.
       -1    1    4    4    0  502 -0.26632491303E+02  0.44108506745E+02  0.84535362014E+02  0.99000390863E+02  0.00000000000E+00 0.  1.
       -5    1    5    5    0  504  0.72147346939E+00 -0.88573353562E+02  0.10393615135E+02  0.89307764056E+02  0.47000000000E+01 0.  1.
       11    1    6    6    0    0 -0.30899494059E+02  0.39336043911E+02  0.12678416031E+02  0.51602764623E+02  0.00000000000E+00 0. -1.
      -12    1    6    6    0    0 -0.41137566200E+02 -0.38537227003E+02  0.57217397299E+02  0.80319659932E+02  0.00000000000E+00 0.  1.
</event>
<event>
12   0  0.1523332E-01  0.2351310E+03  0.7957747E-01  0.1130187E+00
       21   -1    0    0  504  503  0.00000000000E+00  0.00000000000E+00  0.35175524414E+03  0.35175524414E+03  0.00000000000E+00 0. -1.
       21   -1    0    0  501  504  0.00000000000E+00  0.00000000000E+00 -0.16778914887E+03  0.16778914887E+03  0.00000000000E+00 0. -1.
        6    2    1    2  501    0 -0.54693176671E+02  0.14436065034E+03  0.16905503268E+02  0.23573796498E+03  0.17735628308E+03 0.  0.
       24    2    3    3    0    0  0.36533425419E+01  0.90498432964E+02 -0.49963192094E+02  0.13181988578E+03  0.81711984686E+02 0.  0.
       -6    2    1    2    0  503  0.54693176671E+02 -0.14436065034E+03  0.16706059200E+03  0.28380642804E+03  0.16972184966E+03 0.  0.
      -24    2    5    5    0    0  0.95184299521E+02 -0.72058564879E+02  0.84007850156E+02  0.16638849704E+03  0.79845634885E+02 0.  0.
        5    1    3    3  501    0 -0.58346519213E+02  0.53862217379E+02  0.66868695362E+02  0.10391807920E+03  0.47000000000E+01 0. -1.
        2    1    4    4  502    0 -0.19740604620E+02  0.73363014763E+02 -0.22743157408E+01  0.76006551809E+02  0.00000000000E+00 0. -1.
       -1    1    4    4    0  502  0.23393947162E+02  0.17135418202E+02 -0.47688876354E+02  0.55813333968E+02  0.00000000000E+00 0.  1.
       -5    1    5    5    0  503 -0.40491122850E+02 -0.72302085464E+02  0.83052741848E+02  0.11741793100E+03  0.47000000000E+01 0.  1.
       11    1    6    6    0    0  0.15070513727E+02 -0.30805167328E+01  0.54501395893E+02  0.56630487563E+02  0.00000000000E+00 0. -1.
      -12    1    6    6    0    0  0.80113785794E+02 -0.68978048146E+02  0.29506454264E+02  0.10975800947E+03  0.00000000000E+00 0.  1.
</event>
<event>
12   0  0.1523332E-01  0.1941692E+03  0.7957747E-01  0.1160829E+00
       21   -1    0    0  501  503  0.00000000000E+00  0.00000000000E+00  0.22844098838E+03  0.22844098838E+03  0.00000000000E+00 0. -1.
       21   -1    0    0  503  504  0.00000000000E+00  0.00000000000E+00 -0.53997102410E+03  0.53997102410E+03  0.00000000000E+00 0. -1.
        6    2    1    2  501    0 -0.86048502999E+02 -0.19664659895E+02  0.16441030588E+03  0.25438779968E+03  0.17289118030E+03 0.  0.
       24    2    3    3    0    0 -0.14020288529E+02  0.47982605311E+02  0.79703040446E+02  0.12415098849E+03  0.81006137941E+02 0.  0.
       -6    2    1    2    0  504  0.86048502999E+02  0.19664659895E+02 -0.47594034160E+03  0.51402421280E+03  0.17294692502E+03 0.  0.
      -24    2    5    5    0    0  0.33315077903E+02 -0.51978502736E+02 -0.18969974470E+03  0.21424208161E+03  0.78115409678E+02 0.  0.
        5    1    3    3  501    0 -0.72028214470E+02 -0.67647265206E+02  0.84707265438E+02  0.13023681118E+03  0.47000000000E+01 0. -1.
        2    1    4    4  502    0  0.31128458578E+02  0.33265136864E+02  0.52158850706E+02  0.69253851669E+02  0.00000000000E+00 0. -1.
       -1    1    4    4    0  502 -0.45148747107E+02  0.14717468447E+02  0.27544189740E+02  0.54897136822E+02  0.00000000000E+00 0.  1.
       -5    1    5    5    0  504  0.52733425097E+02  0.71643162631E+02 -0.28624059690E+03  0.29978213120E+03  0.47000000000E+01 0.  1.
       13    1    6    6    0    0  0.47894534355E+02 -0.44643027593E+02 -0.18643513608E+03  0.19759794103E+03  0.00000000000E+00 0. -1.
      -14    1    6    6    0    0 -0.14579456452E+02 -0.73354751425E+01 -0.32646086171E+01  0.16644140574E+02  0.00000000000E+00 0.  1.
</event>
<event>
12   0  0.1523332E-01  0.1784045E+03  0.7957747E-01  0.1174921E+00
       21   -1    0    0  504  503  0.00000000000E+00  0.00000000000E+00  0.11252179093E+03  0.11252179093E+03  0.00000000000E+00 0. -1.
       21   -1    0    0  501  504  0.00000000000E+00  0.00000000000E+00 -0.28952873462E+03  0.28952873462E+03  0.00000000000E+00 0. -1.
        6    2    1    2  501    0 -0.39613067533E+02 -0.89350686997E+00 -0.52021410568E+02  0.18422132307E+03  0.17222449083E+03 0.  0.
       24    2    3    3    0    0  0.23359918037E+02 -0.35930007226E+02  0.62369130122E+01  0.91435141262E+02  0.80528471882E+02 0.  0.
       -6    2    1    2    0  503  0.39613067533E+02  0.89350686997E+00 -0.12498553312E+03  0.21782920247E+03  0.17394879847E+03 0.  0.
      -24    2    5    5    0    0 -0.17942208029E+02 -0.21281950187E+02 -0.13095282023E+03  0.15568373477E+03  0.79460304008E+02 0.  0.
        5    1    3    3  501    0 -0.62972985569E+02  0.35036500356E+02 -0.58258323581E+02  0.92786181811E+02  0.47000000000E+01 0. -1.
      -11    1    4    4    0    0  0.47951140761E+02 -0.82314348774E+00  0.75680437873E+01  0.48551670952E+02  0.00000000000E+00 0.  1.
       12    1    4    4    0    0 -0.24591222724E+02 -0.35106863738E+02 -0.13311307751E+01  0.42883470309E+02  0.00000000000E+00 0. -1.
       -5    1    5    5    0  503  0.57555275562E+02  0.22175457057E+02  0.59672871110E+01  0.62145467704E+02  0.47000000000E+01 0.  1.
        1    1    6    6  502    0 -0.33575227365E+02  0.19990368794E+02 -0.73441807393E+02  0.83190202610E+02  0.00000000000E+00 0. -1.
       -2    1    6    6    0  502  0.15633019335E+02 -0.41272318981E+02 -0.57511012837E+02  0.72493532160E+02  0.00000000000E+00 0.  1.
</event>
<event>
12   0  0.1523332E-01  0.2068469E+03  0.7957747E-01  0.1150522E+00
       21   -1    0    0  504  503  0.00000000000E+00  0.00000000000E+00  0.31142379356E+03  0.31142379356E+03  0.00000000000E+00 0.  1.
       21   -1    0    0  501  504  0.00000000000E+00  0.00000000000E+00 -0.37549238345E+03  0.37549238345E+03  0.00000000000E+00 0.  1.
        6    2    1    2  501    0 -0.29797910880E+02  0.10702093639E+03 -0.30584408013E+03  0.36922383516E+03  0.17448278649E+03 0.  0.
       24    2    3    3    0    0  0.98079045849E+01  0.97064391693E+02 -0.30303905785E+03  0.32802053977E+03  0.79038679164E+02 0.  0.
       -6    2    1    2    0  503  0.29797910880E+02 -0.10702093639E+03  0.24177549024E+03  0.31769234185E+03  0.17358467695E+03 0.  0.
      -24    2    5    5    0    0 -0.10111441599E+01 -0.13605904314E+03  0.16084911229E+03  0.22623974120E+03  0.82455430041E+02 0.  0.
        5    1    3    3  501    0 -0.39605815465E+02  0.99565446940E+01 -0.28050222818E+01  0.41203295389E+02  0.47000000000E+01 0. -1.
        2    1    4    4  502    0  0.27789974833E+02  0.72821534884E+01 -0.11955414080E+03  0.12295733017E+03  0.00000000000E+00 0. -1.
       -1    1    4    4    0  502 -0.17982070248E+02  0.89782238205E+02 -0.18348491705E+03  0.20506320960E+03  0.00000000000E+00 0.  1.
       -5    1    5    5    0  503  0.30809055040E+02  0.29038106755E+02  0.80926377950E+02  0.91452600644E+02  0.47000000000E+01 0.  1.
       13    1    6    6    0    0 -0.31163265994E+02 -0.33088690127E+02  0.79562667544E+02  0.91630937071E+02  0.00000000000E+00 0. -1.
      -14    1    6    6    0    0  0.30152121834E+02 -0.10297035302E+03  0.81286444742E+02  0.13460880413E+03  0.00000000000E+00 0.  1.
</event>
<event>
12   0  0.1523332E-01  0.2163759E+03  0.7957747E-01  0.1143293E+00
        2   -1    0    0  502    0  0.00000000000E+00  0.00000000000E+00  0.10716331003E+03  0.10716331003E+03  0.00000000000E+00 0.  1.
       -2   -1    0    0    0  501  0.00000000000E+00  0.00000000000E+00 -0.43752890278E+03  0.43752890278E+03  0.00000000000E+00 0. -1.
        6    2    1    2  502    0  0.10530967397E+03 -0.74662078110E+02 -0.17547512453E+03  0.27846747885E+03  0.17345911365E+03 0.  0.
       24    2    3    3    0    0  0.13574060587E+02  0.15638830521E+02 -0.94963705769E+02  0.12656667104E+03  0.81069036408E+02 0.  0.
       -6    2    1    2    0  501 -0.10530967397E+03  0.74662078110E+02 -0.15489046822E+03  0.26622473397E+03  0.17383900164E+03 0.  0.
      -24    2    5    5    0    0 -0.10801462766E+03 -0.61425055178E+01 -0.82113777660E+02  0.15734298987E+03  0.79430811505E+02 0.  0.
        5    1    3    3  502    0  0.91735613379E+02 -0.90300908630E+02 -0.80511418762E+02  0.15190080781E+03  0.47000000000E+01 0. -1.
      -11    1    4    4    0    0  0.16500404397E+02  0.36206467076E+02 -0.12769899643E+02  0.41788059782E+02  0.00000000000E+00 0.  1.
       12    1    4    4    0    0 -0.29263438103E+01 -0.20567636556E+02 -0.82193806126E+02  0.84778611259E+02  0.00000000000E+00 0. -1.
       -5    1    5    5    0  501  0.27049536895E+01  0.80804583627E+02 -0.72776690561E+02  0.10888174410E+03  0.47000000000E+01 0.  1.
        3    1    6    6  503    0 -0.62745861445E+02  0.15398881461E+02 -0.85419737047E+02  0.10710135459E+03  0.00000000000E+00 0. -1.
       -4    1    6    6    0  503 -0.45268766211E+02 -0.21541386979E+02  0.33059593872E+01  0.50241635271E+02  0.00000000000E+00 0.  1.
</event>
<event>
12   0  0.1523332E-01  0.1733937E+03  0.7957747E-01  0.1179739E+00
       21   -1    0    0  504  503  0.00000000000E+00  0.00000000000E+00  0.91412145760E+02  0.91412145760E+02  0.00000000000E+00 0.  1.
       21   -1    0    0  501  504  0.00000000000E+00  0.00000000000E+00 -0.42422700756E+03  0.42422700756E+03  0.00000000000E+00 0.  1.
        6    2    1    2  501    0 -0.37534336180E+01  0.80612628885E+01 -0.28876768393E+03  0.33682659690E+03  0.17316555336E+03 0.  0.
       24    2    3    3    0    0  0.11010114545E+02  0.60330733783E+02 -0.11116689590E+03  0.15104664681E+03  0.81829033410E+02 0.  0.
       -6    2    1    2    0  503  0.37534336180E+01 -0.80612628885E+01 -0.44047177868E+02  0.17881255643E+03  0.17307427375E+03 0.  0.
      -24    2    5    5    0    0 -0.53566630936E+02  0.20105766737E+02 -0.51549268140E+02  0.11433509744E+03  0.84507760921E+02 0.  0.
        5    1    3    3  501    0 -0.14763548163E+02 -0.52269470894E+02 -0.17760078804E+03  0.18577995008E+03  0.47000000000E+01 0. -1.
      -13    1    4    4    0    0 -0.32681918655E+02  0.21693778238E+02 -0.23427284371E+02  0.45689883718E+02  0.00000000000E+00 0.  1.
       14    1    4    4    0    0  0.43692033200E+02  0.38636955545E+02 -0.87739611528E+02  0.10535676310E+03  0.00000000000E+00 0. -1.
       -5    1    5    5    0  503  0.57320064554E+02 -0.28167029626E+02  0.75020902718E+01  0.64477458983E+02  0.47000000000E+01 0.  1.
        1    1    6    6  502    0 -0.29731235661E+01  0.41911146976E+02 -0.40068376405E+02  0.58059094828E+02  0.00000000000E+00 0. -1.
       -2    1    6    6    0  502 -0.50593507370E+02 -0.21805380239E+02 -0.11480891735E+02  0.56276002616E+02  0.00000000000E+00 0.  1.
</event>
<event>
12   0  0.1523332E-01  0.2082016E+03  0.7957747E-01  0.1149468E+00
       21   -1    0    0  501  503  0.00000000000E+00  0.00000000000E+00  0.41725944172E+03  0.41725944172E+03  0.00000000000E+00 0. -1.
       21   -1    0    0  503  504  0.00000000000E+00  0.00000000000E+00 -0.10140060006E+03  0.10140060006E+03  0.00000000000E+00 0. -1.
        6    2    1    2  501    0 -0.48238606710E+02 -0.10414371910E+03  0.16907346979E+03  0.26820467443E+03  0.17370961918E+03 0.  0.
       24    2    3    3    0    0  0.32097276556E+02 -0.50514906318E+02  0.38904193051E+02  0.10604415425E+03  0.78420886825E+02 0.  0.
       -6    2    1    2    0  504  0.48238606710E+02  0.10414371910E+03  0.14678537187E+03  0.25045536735E+03  0.16735909964E+03 0.  0.
      -24    2    5    5    0    0 -0.84468983894E+01  0.11690887081E+03  0.11996521850E+03  0.18628679082E+03  0.81068370019E+02 0.  0.
        5    1    3    3  501    0 -0.80335883267E+02 -0.53628812779E+02  0.13016927674E+03  0.16216052018E+03  0.47000000000E+01 0. -1.
        4    1    4    4  502    0  0.13670822841E+01  0.20533596456E+02  0.33108676976E+01  0.20843688308E+02  0.00000000000E+00 0. -1.
       -3    1    4    4    0  502  0.30730194272E+02 -0.71048502774E+02  0.35593325354E+02  0.85200465939E+02  0.00000000000E+00 0.  1.
       -5    1    5    5    0  504  0.56685505100E+02 -0.12765151715E+02  0.26820153377E+02  0.64168576530E+02  0.47000000000E+01 0.  1.
       13    1    6    6    0    0  0.28300654064E+02  0.82251798849E+02  0.51103985092E+02  0.10088559227E+03  0.00000000000E+00 0. -1.
      -14    1    6    6    0    0 -0.36747552453E+02  0.34657071962E+02  0.68861233404E+02  0.85401198553E+02  0.00000000000E+00 0.  1.
</event>
<event>
12   0  0.1523332E-01  0.1945988E+03  0.7957747E-01  0.1160466E+00
       21   -1    0    0  504  503  0.00000000000E+00  0.00000000000E+00  0.20076385890E+03  0.20076385890E+03  0.00000000000E+00 0. -1.
       21   -1    0    0  501  504  0.00000000000E+00  0.00000000000E+00 -0.18778881765E+03  0.18778881765E+03  0.00000000000E+00 0.  1.
        6    2    1    2  501    0  0.66112194136E+02 -0.56362738930E+02  0.27748712679E+01  0.19368671050E+03  0.17308743848E+03 0.  0.
       24    2    3    3    0    0  0.95199417870E+02 -0.58927283476E+02 -0.37933772183E+02  0.14336845214E+03  0.81118358558E+02 0.  0.
       -6    2    1    2    0  503 -0.66112194136E+02  0.56362738930E+02  0.10200169988E+02  0.19486596605E+03  0.17412960892E+03 0.  0.
      -24    2    5    5    0    0 -0.16494171832E+00 -0.31466662353E+02  0.16769065252E+02  0.84737476475E+02  0.76870412542E+02 0.  0.
        5    1    3    3  501    0 -0.29087223734E+02  0.25645445453E+01  0.40708643451E+02  0.50318258365E+02  0.47000000000E+01 0. -1.
      -11    1    4    4    0    0  0.41368715020E+02 -0.33555105204E+02 -0.59694110401E+02  0.80004390406E+02  0.00000000000E+00 0.  1.
       12    1    4    4    0    0  0.53830702850E+02 -0.25372178272E+02  0.21760338218E+02  0.63364061730E+02  0.00000000000E+00 0. -1.
       -5    1    5    5    0  503 -0.65947252418E+02  0.87829401284E+02 -0.65688952649E+01  0.11012848958E+03  0.47000000000E+01 0.  1.
        1    1    6    6  502    0  0.31509774166E+02  0.75987028506E+01  0.27631523449E+01  0.32530618867E+02  0.00000000000E+00 0. -1.
       -2    1    6    6    0  502 -0.31674715884E+02 -0.39065365204E+02  0.14005912907E+02  0.52206857607E+02  0.00000000000E+00 0.  1.
</event>
<event>
12   0  0.1523332E-01  0.1925036E+03  0.7957747E-01  0.1162247E+00
       21   -1    0    0  501  503  0.00000000000E+00  0.00000000000E+00  0.13748715231E+03  0.13748715231E+03  0.00000000000E+00 0. -1.
       21   -1    0    0  503  504  0.00000000000E+00  0.00000000000E+00 -0.27645627061E+03  0.27645627061E+03  0.00000000000E+00 0. -1.
        6    2    1    2  501    0 -0.87119764938E+02 -0.22003470352E+02 -0.30260990914E+02  0.19286632182E+03  0.16795143456E+03 0.  0.
       24    2    3    3    0    0  0.98287495764E+01  0.16788100774E+02  0.18929022107E+01  0.83505619097E+02  0.81185963665E+02 0.  0.
       -6    2    1    2    0  504  0.87119764938E+02  0.22003470352E+02 -0.10870812739E+03  0.22107710109E+03  0.17024576799E+03 0.  0.
      -24    2    5    5    0    0  0.86323189194E+02 -0.34719029017E+02 -0.32999542081E+02  0.12635668958E+03  0.78866591508E+02 0.  0.
        5    1    3    3  501    0 -0.96948514515E+02 -0.38791571126E+02 -0.32153893125E+02  0.10936070272E+03  0.47000000000E+01 0. -1.
        2    1    4    4  502    0  0.21979760195E+02 -0.18069409342E+02 -0.24965908628E+02  0.37853797773E+02  0.00000000000E+00 0. -1.
       -1    1    4    4    0  502 -0.12151010618E+02  0.34857510116E+02  0.26858810839E+02  0.45651821324E+02  0.00000000000E+00 0.  1.
       -5    1    5    5    0  504  0.79657574417E+00  0.56722499370E+02 -0.75708585308E+02  0.94720411512E+02  0.47000000000E+01 0.  1.
       13    1    6    6    0    0  0.58552663607E+02 -0.93126588875E+01 -0.56569737156E+02  0.81946782688E+02  0.00000000000E+00 0. -1.
      -14    1    6    6    0    0  0.27770525587E+02 -0.25406370130E+02  0.23570195074E+02  0.44409906895E+02  0.00000000000E+00 0.  1.
</event>
<event>
12   0  0.1523332E-01  0.2654408E+03  0.7957747E-01  0.1111600E+00
       -2   -1    0    0    0  501  0.00000000000E+00  0.00000000000E+00  0.11242983794E+03  0.11242983794E+03  0.00000000000E+00 0.  1.
        2   -1    0    0  502    0  0.00000000000E+00  0.00000000000E+00 -0.85142882051E+03  0.85142882051E+03  0.00000000000E+00 0. -1.
        6    2    1    2  502    0 -0.12786252241E+03  0.15575258365E+03 -0.61772991196E+03  0.67259107130E+03  0.17372625916E+03 0.  0.
       24    2    3    3    0    0 -0.45055566238E+02  0.15750268887E+03 -0.44969236329E+03  0.48519106431E+03  0.79687177370E+02 0.  0.
       -6    2    1    2    0  501  0.12786252241E+03 -0.15575258365E+03 -0.12126907061E+03  0.29126758715E+03  0.17182237306E+03 0.  0.
      -24    2    5    5    0    0  0.50324891365E+02 -0.42871025897E+02 -0.11463405826E+03  0.15407996490E+03  0.78924956237E+02 0.  0.
        5    1    3    3  502    0 -0.82806956174E+02 -0.17501052156E+01 -0.16803754867E+03  0.18740000700E+03  0.47000000000E+01 0. -1.
      -11    1    4    4    0    0 -0.27979599585E+01  0.11747078583E+03 -0.35598193228E+03  0.37487377904E+03  0.00000000000E+00 0.  1.
       12    1    4    4    0    0 -0.42257606279E+02  0.40031903036E+02 -0.93710431011E+02  0.11031728527E+03  0.00000000000E+00 0. -1.
       -5    1    5    5    0  501  0.77537631047E+02 -0.11288155775E+03 -0.66350123536E+01  0.13718762225E+03  0.47000000000E+01 0.  1.
        1    1    6    6  503    0  0.37107294533E+02 -0.64931681279E+02 -0.69296056778E+02  0.10195596121E+03  0.00000000000E+00 0. -1.
       -2    1    6    6    0  503  0.13217596832E+02  0.22060655382E+02 -0.45338001482E+02  0.52124003687E+02  0.00000000000E+00 0.  1.
</event>
<event>
12   0  0.1523332E-01  0.1985039E+03  0.7957747E-01  0.1157210E+00
       21   -1    0    0  504  503  0.00000000000E+00  0.00000000000E+00  0.10493800009E+03  0.10493800009E+03  0.00000000000E+00 0. -1.
       21   -1    0    0  501  504  0.00000000000E+00  0.00000000000E+00 -0.37574077293E+03  0.37574077293E+03  0.00000000000E+00 0.  1.
        6    2    1    2  501    0  0.94896827941E+02  0.21535921720E+02 -0.14476316655E+03  0.24568309068E+03  0.17301619224E+03 0.  0.
       24    2    3    3    0    0  0.32621604783E+02 -0.22510665273E+02 -0.97008837809E+01  0.90498634397E+02  0.80777450640E+02 0.  0.
       -6    2    1    2    0  503 -0.94896827941E+02 -0.21535921720E+02 -0.12603960629E+03  0.23499568235E+03  0.17282298600E+03 0.  0.
      -24    2    5    5    0    0 -0.10133285489E+03  0.84124106588E+01 -0.28049909352E+02  0.13222216552E+03  0.79729464481E+02 0.  0.
        5    1    3    3  501    0  0.62275223159E+02  0.44046586993E+02 -0.13506228277E+03  0.15518445628E+03  0.47000000000E+01 0. -1.
      -11    1    4    4    0    0 -0.22810445173E+02  0.94196766342E+01 -0.97304021463E+01  0.26527861633E+02  0.00000000000E+00 0.  1.
       12    1    4    4    0    0  0.55432049956E+02 -0.31930341907E+02  0.29518365451E-01  0.63970772764E+02  0.00000000000E+00 0. -1.
       -5    1    5    5    0  503  0.64360269523E+01 -0.29948332378E+02 -0.97989696937E+02  0.10277351683E+03  0.47000000000E+01 0.  1.
        3    1    6    6  502    0 -0.32347403389E+02  0.30119088965E+02 -0.39163472350E+02  0.59053294511E+02  0.00000000000E+00 0. -1.
       -4    1    6    6    0  502 -0.68985451505E+02 -0.21706678306E+02  0.11113562998E+02  0.73168871010E+02  0.00000000000E+00 0.  1.
</event>
<event>
12   0  0.1523332E-01  0.2383783E+03  0.7957747E-01  0.1128053E+00
        2   -1    0    0  502    0  0.00000000000E+00  0.00000000000E+00  0.19742885753E+03  0.19742885753E+03  0.00000000000E+00 0.  1.
       -2   -1    0    0    0  501  0.00000000000E+00  0.00000000000E+00 -0.39794669707E+03  0.39794669707E+03  0.00000000000E+00 0. -1.
        6    2    1    2  502    0 -0.59835796721E+02 -0.15339670485E+03  0.56310077583E+02  0.24503878351E+03  0.17251756130E+03 0.  0.
       24    2    3    3    0    0 -0.28292070766E+02 -0.14286247092E+02  0.53697458592E+02  0.10229551088E+03  0.81095106892E+02 0.  0.
       -6    2    1    2    0  501  0.59835796721E+02  0.15339670485E+03 -0.25682791713E+03  0.35033677109E+03  0.17223356971E+03 0.  0.
      -24    2    5    5    0    0  0.87403639959E+02  0.72050607359E+02 -0.99643022876E+02  0.17115430951E+03  0.80835508016E+02 0.  0.
        5    1    3    3  502    0 -0.31543725956E+02 -0.13911045775E+03  0.26126189906E+01  0.14274327263E+03  0.47000000000E+01 0. -1.
        2    1    4    4  503    0  0.17217152819E+02  0.22371160329E+02  0.12969634949E+02  0.31066229194E+02  0.00000000000E+00 0. -1.
       -1    1    4    4    0  503 -0.45509223584E+02 -0.36657407421E+02  0.40727823643E+02  0.71229281681E+02  0.00000000000E+00 0.  1.
       -5    1    5    5    0  501 -0.27567843238E+02  0.81346097488E+02 -0.15718489425E+03  0.17918246158E+03  0.47000000000E+01 0.  1.
       11    1    6    6    0    0  0.95984253086E+02  0.41909476507E+02 -0.90740396319E+02  0.13857561324E+03  0.00000000000E+00 0. -1.
      -12    1    6    6    0    0 -0.85806131271E+01  0.30141130852E+02 -0.89026265569E+01  0.32578696264E+02  0.00000000000E+00 0.  1.
</event>
<event>
12   0  0.1523332E-01  0.1986413E+03  0.7957747E-01  0.1157097E+00
       21   -1    0    0  501  503  0.00000000000E+00  0.00000000000E+00  0.35034623779E+03  0.35034623779E+03  0.00000000000E+00 0.  1.
       21   -1    0    0  503  504  0.00000000000E+00  0.00000000000E+00 -0.11244491442E+03  0.11244491442E+03  0.00000000000E+00 0. -1.
        6    2    1    2  501    0 -0.92926594864E+02  0.24768342709E+02  0.11828206126E+03  0.23091371163E+03  0.17344069122E+03 0.  0.
       24    2    3    3    0    0 -0.27087704459E+02 -0.27211530090E+02  0.11440771646E+03  0.14680802090E+03  0.83601784143E+02 0.  0.
       -6    2    1    2    0  504  0.92926594864E+02 -0.24768342709E+02  0.11961926211E+03  0.23187744057E+03  0.17380896624E+03 0.  0.
      -24    2    5    5    0    0 -0.79116422116E+01  0.31333294041E+02  0.50230488518E+02  0.97145723438E+02  0.76614751892E+02 0.  0.
        5    1    3    3  501    0 -0.65838890404E+02  0.51979872799E+02  0.38743447996E+01  0.84105690732E+02  0.47000000000E+01 0. -1.
      -11    1    4    4    0    0  0.13263734518E+02 -0.32420359637E+02  0.12692453004E+02  0.37257277620E+02  0.00000000000E+00 0.  1.
       12    1    4    4    0    0 -0.40351438978E+02  0.52088295477E+01  0.10171526346E+03  0.10955074328E+03  0.00000000000E+00 0. -1.
       -5    1    5    5    0  504  0.10083823708E+03 -0.56101636751E+02  0.69388773589E+02  0.13473171714E+03  0.47000000000E+01 0.  1.
        3    1    6    6  502    0 -0.22673013617E+02  0.93757155249E+01 -0.13597643728E+02  0.28051123026E+02  0.00000000000E+00 0. -1.
       -4    1    6    6    0  502  0.14761371405E+02  0.21957578516E+02  0.63828132246E+02  0.69094600412E+02  0.00000000000E+00 0.  1.
</event>
<event>
12   0  0.1523332E-01  0.2037209E+03  0.7957747E-01  0.1152987E+00
       21   -1    0    0  501  503  0.00000000000E+00  0.00000000000E+00  0.30193730946E+03  0.30193730946E+03  0.00000000000E+00 0.  1.
       21   -1    0    0  503  504  0.00000000000E+00  0.00000000000E+00 -0.25052002741E+03  0.25052002741E+03  0.00000000000E+00 0.  1.
        6    2    1    2  501    0 -0.28170560160E+02 -0.10437582956E+03  0.21151402888E+03  0.29335663794E+03  0.17213958974E+03 0.  0.
       24    2    3    3    0    0 -0.36732992844E+02 -0.12589960931E+03  0.10334590073E+03  0.18263616877E+03  0.73997098305E+02 0.  0.
       -6    2    1    2    0  504  0.28170560160E+02  0.10437582956E+03 -0.16009674683E+03  0.25910069893E+03  0.17266820664E+03 0.  0.
      -24    2    5    5    0    0  0.68881852048E+02  0.53995334423E+02 -0.45916762624E+02  0.12774331478E+03  0.80930832814E+02 0.  0.
        5    1    3    3  501    0  0.85624326843E+01  0.21523779742E+02  0.10816812814E+03  0.11072046917E+03  0.47000000000E+01 0. -1.
        2    1    4    4  502    0  0.66157170878E+01 -0.41092370969E+02  0.70534370585E+02  0.81899011583E+02  0.00000000000E+00 0. -1.
       -1    1    4    4    0  502 -0.43348709932E+02 -0.84807238337E+02  0.32811530147E+02  0.10073715718E+03  0.00000000000E+00 0.  1.
       -5    1    5    5    0  504 -0.40711291888E+02  0.50380495141E+02 -0.11417998420E+03  0.13135738415E+03  0.47000000000E+01 0.  1.
       11    1    6    6    0    0  0.24101954480E+02 -0.20837149987E+02 -0.15030237706E+02  0.35227816776E+02  0.00000000000E+00 0. -1.
      -12    1    6    6    0    0  0.44779897568E+02  0.74832484410E+02 -0.30886524919E+02  0.92515498003E+02  0.00000000000E+00 0.  1.
</event>
<event>
12   0  0.1523332E-01  0.1862081E+03  0.7957747E-01  0.1167754E+00
       21   -1    0    0  501  503  0.00000000000E+00  0.00000000000E+00  0.69699177284E+02  0.69699177284E+02  0.00000000000E+00 0.  1.
       21   -1    0    0  503  504  0.00000000000E+00  0.00000000000E+00 -0.48746154073E+03  0.48746154073E+03  0.00000000000E+00 0.  1.
        6    2    1    2  501    0  0.45903694849E+02 -0.32085221910E+02 -0.21950196997E+03  0.28784470452E+03  0.17758617185E+03 0.  0.
       24    2    3    3    0    0  0.15432841486E+02 -0.63396526189E+00 -0.22872335584E+03  0.24284716673E+03  0.80136124026E+02 0.  0.
       -6    2    1    2    0  504 -0.45903694849E+02  0.32085221910E+02 -0.19826039348E+03  0.26931601350E+03  0.17345697115E+03 0.  0.
      -24    2    5    5    0    0 -0.76416472541E+02  0.71500417149E+02 -0.15692298810E+03  0.20438945267E+03  0.78730154572E+02 0.  0.
        5    1    3    3  501    0  0.30470853362E+02 -0.31451256649E+02  0.92213858731E+01  0.44997537786E+02  0.47000000000E+01 0. -1.
      -11    1    4    4    0    0 -0.31163864045E+02  0.16513166812E+01 -0.12944351408E+03  0.13315230605E+03  0.00000000000E+00 0.  1.
       12    1    4    4    0    0  0.46596705531E+02 -0.22852819431E+01 -0.99279841763E+02  0.10969486068E+03  0.00000000000E+00 0. -1.
       -5    1    5    5    0  504  0.30512777692E+02 -0.39415195239E+02 -0.41337405384E+02  0.64926560836E+02  0.47000000000E+01 0.  1.
        1    1    6    6  502    0 -0.58511632915E+02  0.10631315299E+02 -0.11146709819E+03  0.12633902813E+03  0.00000000000E+00 0. -1.
       -2    1    6    6    0  502 -0.17904839626E+02  0.60869101850E+02 -0.45455889913E+02  0.78050424533E+02  0.00000000000E+00 0.  1.
</event>
<event>
12   0  0.1523332E-01  0.2326116E+03  0.7957747E-01  0.1131868E+00
       21   -1    0    0  504  503  0.00000000000E+00  0.00000000000E+00  0.15633239331E+03  0.15633239331E+03  0.00000000000E+00 0.  1.
       21   -1    0    0  501  504  0.00000000000E+00  0.00000000000E+00 -0.34714767604E+03  0.34714767604E+03  0.00000000000E+00 0. -1.
        6    2    1    2  501    0 -0.15154826476E+03  0.31106372709E+02 -0.76028062399E+02  0.24408794209E+03  0.17281254071E+03 0.  0.
       24    2    3    3    0    0 -0.18013406845E+03  0.21567146540E+02 -0.54756927050E+02  0.20690331881E+03  0.83049610775E+02 0.  0.
       -6    2    1    2    0  503  0.15154826476E+03 -0.31106372709E+02 -0.11478722032E+03  0.25939212727E+03  0.17370574764E+03 0.  0.
      -24    2    5    5    0    0  0.12784153572E+03 -0.38253143962E+02 -0.14990752013E+03  0.21616469617E+03  0.80300373617E+02 0.  0.
        5    1    3    3  501    0  0.28585803694E+02  0.95392261691E+01 -0.21271135349E+02  0.37184623271E+02  0.47000000000E+01 0. -1.
        2    1    4    4  502    0 -0.33798570809E+02  0.31853701670E+02 -0.36510373933E+02  0.59076299000E+02  0.00000000000E+00 0. -1.
       -1    1    4    4    0  502 -0.14633549764E+03 -0.10286555130E+02 -0.18246553117E+02  0.14782701981E+03  0.00000000000E+00 0.  1.
       -5    1    5    5    0  503  0.23706729040E+02  0.71467712524E+01  0.35120299801E+02  0.43227431097E+02  0.47000000000E+01 0.  1.
       13    1    6    6    0    0  0.11890323308E+03 -0.48637353407E+01 -0.13013977346E+03  0.17634623726E+03  0.00000000000E+00 0. -1.
      -14    1    6    6    0    0  0.89383026388E+01 -0.33389408621E+02 -0.19767746663E+02  0.39818458913E+02  0.00000000000E+00 0.  1.
</event>
<event>
12   0  0.1523332E-01  0.1790130E+03  0.7957747E-01  0.1174347E+00
       21   -1    0    0  504  503  0.00000000000E+00  0.00000000000E+00  0.78598022108E+02  0.78598022108E+02  0.00000000000E+00 0.  1.
       21   -1    0    0  501  504  0.00000000000E+00  0.00000000000E+00 -0.48500872642E+03  0.48500872642E+03  0.00000000000E+00 0.  1.
        6    2    1    2  501    0  0.65781790777E+01 -0.45360131561E+02 -0.32248822928E+03  0.36589827724E+03  0.16667956470E+03 0.  0.
       24    2    3    3    0    0 -0.50940557707E+01  0.24647910689E+02 -0.24950961590E+03  0.26398981313E+03  0.82474869539E+02 0.  0.
       -6    2    1    2    0  503 -0.65781790777E+01  0.45360131561E+02 -0.83922475031E+02  0.19770847129E+03  0.17304578535E+03 0.  0.
      -24    2    5    5    0    0  0.63319510865E+02  0.32660571585E+02 -0.72429123701E+02  0.12558945155E+03  0.73828578398E+02 0.  0.
        5    1    3    3  501    0  0.11672234848E+02 -0.70008042250E+02 -0.72978613376E+02  0.10190846411E+03  0.47000000000E+01 0. -1.
        4    1    4    4  502    0 -0.35638724530E+02 -0.10567545122E+02 -0.14247282478E+03  0.14724230879E+03  0.00000000000E+00 0. -1.
       -3    1    4    4    0  502  0.30544668759E+02  0.35215455811E+02 -0.10703679112E+03  0.11674750434E+03  0.00000000000E+00 0.  1.
       -5    1    5    5    0  503 -0.69897689943E+02  0.12699559976E+02 -0.11493351331E+02  0.72119019736E+02  0.47000000000E+01 0.  1.
       13    1    6    6    0    0  0.12665681448E+02 -0.44411533955E+01 -0.60127870541E+02  0.61607663044E+02  0.00000000000E+00 0. -1.
      -14    1    6    6    0    0  0.50653829417E+02  0.37101724981E+02 -0.12301253160E+02  0.63981788507E+02  0.00000000000E+00 0.  1.
</event>
<event>
12   0  0.1523332E-01  0.2910799E+03  0.7957747E-01  0.1097870E+00
       21   -1    0    0  501  503  0.00000000000E+00  0.00000000000E+00  0.29495969515E+03  0.29495969515E+03  0.00000000000E+00 0.  1.
       21   -1    0    0  503  504  0.00000000000E+00  0.00000000000E+00 -0.69064569013E+03  0.69064569013E+03  0.00000000000E+00 0. -1.
        6    2    1    2  501    0 -0.66101047192E+02 -0.22408508805E+03  0.17912196244E+03  0.34177796601E+03  0.17362034874E+03 0.  0.
       24    2    3    3    0    0 -0.50788970762E+02 -0.17616649406E+03  0.20293799764E+03  0.28592149936E+03  0.83385368817E+02 0.  0.
       -6    2    1    2    0  504  0.66101047192E+02  0.22408508805E+03 -0.57480795742E+03  0.64382741926E+03  0.17183155343E+03 0.  0.
      -24    2    5    5    0    0  0.51427640566E+02  0.92970278451E+02 -0.41784780298E+03  0.43872992479E+03  0.81233524853E+02 0.  0.
        5    1    3    3  501    0 -0.15312076430E+02 -0.47918593990E+02 -0.23816035194E+02  0.55856466653E+02  0.47000000000E+01 0. -1.
      -11    1    4    4    0    0  0.15635518867E+02 -0.87084402412E+02  0.71134048658E+02  0.11352627657E+03  0.00000000000E+00 0.  1.
       12    1    4    4    0    0 -0.66424489629E+02 -0.89082091646E+02  0.13180394898E+03  0.17239522279E+03  0.00000000000E+00 0. -1.
       -5    1    5    5    0  504  0.14673406626E+02  0.13111480960E+03 -0.15696015444E+03  0.20509749448E+03  0.47000000000E+01 0.  1.
        3    1    6    6  502    0  0.47694762037E+02  0.18853003018E+02 -0.25003151799E+03  0.25523711728E+03  0.00000000000E+00 0. -1.
       -4    1    6    6    0  502  0.37328785288E+01  0.74117275433E+02 -0.16781628499E+03  0.18349280751E+03  0.00000000000E+00 0.  1.
</event>
<event>
12   0  0.1523332E-01  0.2569354E+03  0.7957747E-01  0.1116532E+00
       21   -1    0    0  501  503  0.00000000000E+00  0.00000000000E+00  0.21707441244E+03  0.21707441244E+03  0.00000000000E+00 0.  1.
       21   -1    0    0  503  504  0.00000000000E+00  0.00000000000E+00 -0.31413150330E+03  0.31413150330E+03  0.00000000000E+00 0. -1.
        6    2    1    2  501    0  0.12299396440E+03 -0.14552551753E+03 -0.97320543844E+02  0.27427039247E+03  0.17160352094E+03 0.  0.
       24    2    3    3    0    0  0.10576352113E+03 -0.16753851102E+03 -0.50604464272E+02  0.21962661745E+03  0.80124679163E+02 0.  0.
       -6    2    1    2    0  504 -0.12299396440E+03  0.14552551753E+03  0.26345298441E+00  0.25693552328E+03  0.17236763671E+03 0.  0.
      -24    2    5    5    0    0 -0.77600148109E+02  0.14884096354E+03  0.45855783487E+02  0.19234185996E+03  0.81958665189E+02 0.  0.
        5    1    3    3  501    0  0.17230443275E+02  0.22012993491E+02 -0.46716079572E+02  0.54643775020E+02  0.47000000000E+01 0. -1.
      -13    1    4    4    0    0  0.85566177212E+02 -0.17221389860E+03 -0.50791388298E+02  0.19889435054E+03  0.00000000000E+00 0.  1.
       14    1    4    4    0    0  0.20197343917E+02  0.46753875804E+01  0.18692402591E+00  0.20732266902E+02  0.00000000000E+00 0. -1.
       -5    1    5    5    0  504 -0.45393816295E+02 -0.33154460190E+01 -0.45592330503E+02  0.64593663318E+02  0.47000000000E+01 0.  1.
        1    1    6    6  502    0 -0.77027318252E+02  0.60345629053E+02  0.17427917991E+02  0.99390819638E+02  0.00000000000E+00 0. -1.
       -2    1    6    6    0  502 -0.57282985698E+00  0.88495334492E+02  0.28427865496E+02  0.92951040325E+02  0.00000000000E+00 0.  1.
</event>
<event>
12   0  0.1523332E-01  0.1814988E+03  0.7957747E-01  0.1172031E+00
       21   -1    0    0  504  503  0.00000000000E+00  0.00000000000E+00  0.57586033332E+03  0.57586033332E+03  0.00000000000E+00 0. -1.
       21   -1    0    0  501  504  0.00000000000E+00  0.00000000000E+00 -0.72364218513E+02  0.72364218513E+02  0.00000000000E+00 0. -1.
        6    2    1    2  501    0 -0.56461820283E+02  0.44723594799E+01  0.40034622231E+03  0.43956674627E+03  0.17243516914E+03 0.  0.
       24    2    3    3    0    0 -0.76292487021E+02 -0.93774283455E+01  0.14332547643E+03  0.18136754840E+03  0.80271512260E+02 0.  0.
       -6    2    1    2    0  503  0.56461820283E+02 -0.44723594799E+01  0.10314989249E+03  0.20865780556E+03  0.17230856146E+03 0.  0.
      -24    2    5    5    0    0 -0.48065998349E+01 -0.62586854415E+01 -0.42927864987E+01  0.84871580427E+02  0.84394801990E+02 0.  0.
        5    1    3    3  501    0  0.19830666738E+02  0.13849787825E+02  0.25702074588E+03  0.25819919787E+03  0.47000000000E+01 0. -1.
        2    1    4    4  502    0 -0.51002437914E+02 -0.43517470118E+02  0.10225804671E+03  0.12227725461E+03  0.00000000000E+00 0. -1.
       -1    1    4    4    0  502 -0.25290049107E+02  0.34140041773E+02  0.41067429723E+02  0.59090293790E+02  0.00000000000E+00 0.  1.
       -5    1    5    5    0  503  0.61268420118E+02  0.17863259616E+01  0.10744267899E+03  0.12378622513E+03  0.47000000000E+01 0.  1.
       11    1    6    6    0    0 -0.21371196090E+02 -0.24630876363E+02  0.28832922641E+02  0.43528674696E+02  0.00000000000E+00 0. -1.
      -12    1    6    6    0    0  0.16564596256E+02  0.18372190921E+02 -0.33125709139E+02  0.41342905732E+02  0.00000000000E+00 0.  1.
</event>
<event>
12   0  0.1523332E-01  0.1901813E+03  0.7957747E-01  0.1164251E+00
       21   -1    0    0  501  503  0.00000000000E+00  0.00000000000E+00  0.17332817220E+03  0.17332817220E+03  0.00000000000E+00 0. -1.
       21   -1    0    0  503  504  0.00000000000E+00  0.00000000000E+00 -0.37142379714E+03  0.37142379714E+03  0.00000000000E+00 0.  1.
        6    2    1    2  501    0  0.36990200427E+02  0.69366456118E+02  0.81760840786E+02  0.20701146616E+03  0.17317312688E+03 0.  0.
       24    2    3    3    0    0  0.24291500515E+02  0.10151515496E+03  0.16315408504E+02  0.13284954585E+03  0.80544432425E+02 0.  0.
       -6    2    1    2    0  504 -0.36990200427E+02 -0.69366456118E+02 -0.27985646572E+03  0.33774050318E+03  0.17195646520E+03 0.  0.
      -24    2    5    5    0    0 -0.14511232389E+02  0.10766957456E+02 -0.22214674716E+03  0.23635426353E+03  0.78661663957E+02 0.  0.
        5    1    3    3  501    0  0.12698699912E+02 -0.32148698844E+02  0.65445432282E+02  0.74161920306E+02  0.47000000000E+01 0. -1.
        2    1    4    4  502    0  0.35982992379E+02  0.44679634779E+02  0.40252267220E+02  0.70080600175E+02  0.00000000000E+00 0. -1.
       -1    1    4    4    0  502 -0.11691491864E+02  0.56835520183E+02 -0.23936858716E+02  0.62768945679E+02  0.00000000000E+00 0.  1.
       -5    1    5    5    0  504 -0.22478968039E+02 -0.80133413574E+02 -0.57709718559E+02  0.10138623965E+03  0.47000000000E+01 0.  1.
       13    1    6    6    0    0 -0.11917621975E+02  0.60728203711E+01  0.74650942394E+00  0.13396497196E+02  0.00000000000E+00 0. -1.
      -14    1    6    6    0    0 -0.25936104137E+01  0.46941370848E+01 -0.22289325658E+03  0.22295776633E+03  0.00000000000E+00 0.  1.
</event>
<event>
12   0  0.1523332E-01  0.1877103E+03  0.7957747E-01  0.1166418E+00
       21   -1    0    0  504  503  0.00000000000E+00  0.00000000000E+00  0.42732893520E+03  0.42732893520E+03  0.00000000000E+00 0. -1.
       21   -1    0    0  501  504  0.00000000000E+00  0.00000000000E+00 -0.82154012091E+02  0.82154012091E+02  0.00000000000E+00 0. -1.
        6    2    1    2  501    0  0.25556159056E+02  0.67413286669E+02  0.17363088466E+03  0.25570066662E+03  0.17331323757E+03 0.  0.
       24    2    3    3    0    0 -0.41542695880E+02  0.10817460201E+02  0.48913588824E+02  0.10311679530E+03  0.79985756701E+02 0.  0.
       -6    2    1    2    0  503 -0.25556159056E+02 -0.67413286669E+02  0.17154403845E+03  0.25378228067E+03  0.17257004482E+03 0.  0.
      -24    2    5    5    0    0 -0.44853000890E+02 -0.20453327076E+02  0.25745828534E+02  0.99325769236E+02  0.82295993038E+02 0.  0.
        5    1    3    3  501    0  0.67098854935E+02  0.56595826468E+02  0.12471729584E+03  0.15258387133E+03  0.47000000000E+01 0. -1.
      -13    1    4    4    0    0 -0.45468176396E+02  0.39402993767E+02  0.42206222746E+02  0.73493647488E+02  0.00000000000E+00 0.  1.
       14    1    4    4    0    0  0.39254805164E+01 -0.28585533566E+02  0.67073660780E+01  0.29623147812E+02  0.00000000000E+00 0. -1.
       -5    1    5    5    0  503  0.19296841834E+02 -0.46959959593E+02  0.14579820992E+03  0.15445651143E+03  0.47000000000E+01 0.  1.
        3    1    6    6  502    0 -0.30546011482E+02 -0.50933630711E+02  0.27834446048E+02  0.65590014039E+02  0.00000000000E+00 0. -1.
       -4    1    6    6    0  502 -0.14306989407E+02  0.30480303635E+02 -0.20886175134E+01  0.33735755197E+02  0.00000000000E+00 0.  1.
</event>
<event>
12   0  0.1523332E-01  0.2863451E+03  0.7957747E-01  0.1100287E+00
       21   -1    0    0  504  503  0.00000000000E+00  0.00000000000E+00  0.70890165839E+03  0.70890165839E+03  0.00000000000E+00 0. -1.
       21   -1    0    0  501  504  0.00000000000E+00  0.00000000000E+00 -0.17261504182E+03  0.17261504182E+03  0.00000000000E+00 0.  1.
        6    2    1    2  501    0  0.22364246868E+03  0.44672081504E+02  0.14348956323E+02  0.28670434746E+03  0.17315294293E+03 0.  0.
       24    2    3    3    0    0  0.99195990933E+02  0.92865787270E+02 -0.15495716313E+01  0.15222605074E+03  0.68603719203E+02 0.  0.
       -6    2    1    2    0  503 -0.22364246868E+03 -0.44672081504E+02  0.52193766025E+03  0.59481235275E+03  0.17138046891E+03 0.  0.
      -24    2    5    5    0    0 -0.24442643296E+03 -0.52250001968E+02  0.48452791297E+03  0.55109762707E+03  0.80417363025E+02 0.  0.
        5    1    3    3  501    0  0.12444647775E+03 -0.48193705766E+02  0.15898527954E+02  0.13447829673E+03  0.47000000000E+01 0. -1.
        4    1    4    4  502    0  0.36409388869E+02  0.49938319147E+02 -0.32836580356E+02  0.69983714724E+02  0.00000000000E+00 0. -1.
       -3    1    4    4    0  502  0.62786602063E+02  0.42927468123E+02  0.31287008724E+02  0.82242336014E+02  0.00000000000E+00 0.  1.
       -5    1    5    5    0  503  0.20783964276E+02  0.75779204640E+01  0.37409747281E+02  0.43714725679E+02  0.47000000000E+01 0.  1.
       13    1    6    6    0    0 -0.76176468270E+02 -0.81029990531E+01  0.23309053439E+03  0.24535629222E+03  0.00000000000E+00 0. -1.
      -14    1    6    6    0    0 -0.16824996468E+03 -0.44147002914E+02  0.25143737858E+03  0.30574133484E+03  0.00000000000E+00 0.  1.
</event>
<event>
12   0  0.1523332E-01  0.2611277E+03  0.7957747E-01  0.1114076E+00
       21   -1    0    0  504  503  0.00000000000E+00  0.00000000000E+00  0.30001286955E+03  0.30001286955E+03  0.00000000000E+00 0.  1.
       21   -1    0    0  501  504  0.00000000000E+00  0.00000000000E+00 -0.22453593506E+03  0.22453593506E+03  0.00000000000E+00 0.  1.
        6    2    1    2  501    0 -0.16005239406E+03 -0.85474619878E+02 -0.25415754948E+01  0.25201522333E+03  0.17487862561E+03 0.  0.
       24    2    3    3    0    0 -0.17088212756E+03 -0.36183480202E+02  0.26896597967E+02  0.19340126907E+03  0.78553664049E+02 0.  0.
       -6    2    1    2    0  503  0.16005239406E+03  0.85474619878E+02  0.78018509981E+02  0.27253358128E+03  0.18778973757E+03 0.  0.
      -24    2    5    5    0    0  0.50053542977E+01  0.26008687837E+02 -0.39617045588E+01  0.87280707647E+02  0.83070580892E+02 0.  0.
        5    1    3    3  501    0  0.10829733494E+02 -0.49291139677E+02 -0.29438173462E+02  0.58613954268E+02  0.47000000000E+01 0. -1.
        4    1    4    4  502    0 -0.20456531161E+02  0.17044235580E+02  0.20681678488E+02  0.33715092447E+02  0.00000000000E+00 0. -1.
       -3    1    4    4    0  502 -0.15042559640E+03 -0.53227715781E+02  0.62149194789E+01  0.15968617662E+03  0.00000000000E+00 0.  1.
       -5    1    5    5    0  503  0.15504703977E+03  0.59465932041E+02  0.81980214540E+02  0.18525287364E+03  0.47000000000E+01 0.  1.
       11    1    6    6    0    0 -0.34352696161E+02 -0.13200261338E+01  0.12553983676E+02  0.36598534242E+02  0.00000000000E+00 0. -1.
      -12    1    6    6    0    0  0.39358050458E+02  0.27328713971E+02 -0.16515688235E+02  0.50682173405E+02  0.00000000000E+00 0.  1.
</event>
<event>
12   0  0.1523332E-01  0.3360179E+03  0.7957747E-01  0.1077154E+00
        1   -1    0    0  502    0  0.00000000000E+00  0.00000000000E+00  0.21760926634E+04  0.21760926634E+04  0.00000000000E+00 0. -1.
       -1   -1    0    0    0  501  0.00000000000E+00  0.00000000000E+00 -0.71816730119E+02  0.71816730119E+02  0.00000000000E+00 0.  1.
        6    2    1    2  502    0 -0.28756770632E+03 -0.20292639396E+02  0.45979725720E+03  0.56943175613E+03  0.17242978346E+03 0.  0.
       24    2    3    3    0    0 -0.24202705982E+03 -0.96263327038E+00  0.26197224057E+03  0.36546012373E+03  0.79709615828E+02 0.  0.
       -6    2    1    2    0  501  0.28756770632E+03  0.20292639396E+02  0.16444786761E+04  0.16784776374E+04  0.17282964502E+03 0.  0.
      -24    2    5    5    0    0  0.28804046075E+03 -0.16243069638E+02  0.14764808181E+04  0.15064879522E+04  0.79241400269E+02 0.  0.
        5    1    3    3  502    0 -0.45540646504E+02 -0.19330006126E+02  0.19782501663E+03  0.20397163240E+03  0.47000000000E+01 0. -1.
      -11    1    4    4    0    0 -0.22732315608E+03 -0.22123801599E+02  0.24279727354E+03  0.33334036048E+03  0.00000000000E+00 0.  1.
       12    1    4    4    0    0 -0.14703903741E+02  0.21161168329E+02  0.19174967035E+02  0.32119763247E+02  0.00000000000E+00 0. -1.
       -5    1    5    5    0  501 -0.47275442396E+00  0.36535709034E+02  0.16799785799E+03  0.17198968521E+03  0.47000000000E+01 0.  1.
        3    1    6    6  503    0  0.17516666651E+02  0.13104742719E+02  0.20811313681E+03  0.20925975630E+03  0.00000000000E+00 0. -1.
       -4    1    6    6    0  503  0.27052379410E+03 -0.29347812357E+02  0.12683676813E+04  0.12972281959E+04  0.00000000000E+00 0.  1.
</event>
<event>
12   0  0.1523332E-01  0.1775813E+03  0.7957747E-01  0.1175700E+00
       21   -1    0    0  501  503  0.00000000000E+00  0.00000000000E+00  0.64896646200E+03  0.64896646200E+03  0.00000000000E+00 0. -1.
       21   -1    0    0  503  504  0.00000000000E+00  0.00000000000E+00 -0.51108021811E+02  0.51108021811E+02  0.00000000000E+00 0. -1.
        6    2    1    2  501    0  0.79495538749E+01  0.29505752665E+02  0.21436643802E+03  0.27746209109E+03  0.17348906996E+03 0.  0.
       24    2    3    3    0    0 -0.17566381394E+02 -0.38949762516E+02  0.16721828811E+03  0.19038592586E+03  0.80369043361E+02 0.  0.
       -6    2    1    2    0  504 -0.79495538749E+01 -0.29505752665E+02  0.38349200217E+03  0.42261239273E+03  0.17493236952E+03 0.  0.
      -24    2    5    5    0    0  0.20446027326E+02 -0.10122185379E+02  0.37855005726E+03  0.38756179313E+03  0.79896802002E+02 0.  0.
        5    1    3    3  501    0  0.25515935269E+02  0.68455515182E+02  0.47148149906E+02  0.87076165229E+02  0.47000000000E+01 0. -1.
      -11    1    4    4    0    0  0.22325727480E+02 -0.26947753455E+02  0.12964921593E+03  0.13428901189E+03  0.00000000000E+00 0.  1.
       12    1    4    4    0    0 -0.39892108874E+02 -0.12002009061E+02  0.37569072181E+02  0.56096913966E+02  0.00000000000E+00 0. -1.
       -5    1    5    5    0  504 -0.28395581201E+02 -0.19383567286E+02  0.49419449094E+01  0.35050599595E+02  0.47000000000E+01 0.  1.
        3    1    6    6  502    0 -0.14713671625E+02 -0.28197982709E+02  0.27307612509E+03  0.27492214981E+03  0.00000000000E+00 0. -1.
       -4    1    6    6    0  502  0.35159698951E+02  0.18075797330E+02  0.10547393217E+03  0.11263964332E+03  0.00000000000E+00 0.  1.
</event>
<event>
12   0  0.1523332E-01  0.2056788E+03  0.7957747E-01  0.1151437E+00
        2   -1    0    0  502    0  0.00000000000E+00  0.00000000000E+00  0.48942923600E+03  0.48942923600E+03  0.00000000000E+00 0. -1.
       -2   -1    0    0    0  501  0.00000000000E+00  0.00000000000E+00 -0.86509928748E+02  0.86509928748E+02  0.00000000000E+00 0.  1.
        6    2    1    2  502    0 -0.88368844470E+02  0.67534581930E+02  0.20909781028E+03  0.29275092115E+03  0.17207915371E+03 0.  0.
       24    2    3    3    0    0 -0.73858634306E+02  0.35972455349E+01  0.20291363753E+03  0.22672923398E+03  0.69022917997E+02 0.  0.
       -6    2    1    2    0  501  0.88368844470E+02 -0.67534581930E+02  0.19382149696E+03  0.28318824359E+03  0.17395067173E+03 0.  0.
      -24    2    5    5    0    0  0.10856052759E+03 -0.60618723960E+02  0.20894548176E+03  0.25661084577E+03  0.82042025654E+02 0.  0.
        5    1    3    3  502    0 -0.14510210164E+02  0.63937336395E+02  0.61841727515E+01  0.66021687171E+02  0.47000000000E+01 0. -1.
        2    1    4    4  503    0 -0.67555151892E+02 -0.21433791013E+02  0.17448785859E+03  0.18833246863E+03  0.00000000000E+00 0. -1.
       -1    1    4    4    0  503 -0.63034824147E+01  0.25031036548E+02  0.28425778944E+02  0.38396765356E+02  0.00000000000E+00 0.  1.
       -5    1    5    5    0  501 -0.20191683121E+02 -0.69158579695E+01 -0.15123984798E+02  0.26577397820E+02  0.47000000000E+01 0.  1.
       11    1    6    6    0    0  0.20778695553E+02 -0.20587994134E+02  0.12608613046E+03  0.12943466300E+03  0.00000000000E+00 0. -1.
      -12    1    6    6    0    0  0.87781832038E+02 -0.40030729826E+02  0.82859351302E+02  0.12717618277E+03  0.00000000000E+00 0.  1.
</event>
<event>
12   0  0.1523332E-01  0.2273049E+03  0.7957747E-01  0.1135488E+00
       21   -1    0    0  501  503  0.00000000000E+00  0.00000000000E+00  0.23461523604E+03  0.23461523604E+03  0.00000000000E+00 0.  1.
       21   -1    0    0  503  504  0.00000000000E+00  0.00000000000E+00 -0.21745690695E+03  0.21745690695E+03  0.00000000000E+00 0. -1.
        6    2    1    2  501    0 -0.86589072006E+02  0.12066155803E+03 -0.50701772302E+00  0.22730546407E+03  0.17207741848E+03 0.  0.
       24    2    3    3    0    0  0.25294472430E+02  0.49950375939E+02 -0.43550358615E+01  0.94810573479E+02  0.76388664828E+02 0.  0.
       -6    2    1    2    0  504  0.86589072006E+02 -0.12066155803E+03  0.17665346809E+02  0.22476667893E+03  0.16778294460E+03 0.  0.
      -24    2    5    5    0    0  0.32612721761E+02 -0.25501747277E+02 -0.42013618171E+02  0.10005699674E+03  0.80822829392E+02 0.  0.
        5    1    3    3  501    0 -0.11188354444E+03  0.70711182094E+02  0.38480181385E+01  0.13249489059E+03  0.47000000000E+01 0. -1.
      -11    1    4    4    0    0  0.13457723397E+02  0.58149390891E+02  0.22945947456E+02  0.63945120883E+02  0.00000000000E+00 0.  1.
       12    1    4    4    0    0  0.11836749033E+02 -0.81990149526E+01 -0.27300983318E+02  0.30865452596E+02  0.00000000000E+00 0. -1.
       -5    1    5    5    0  504  0.53976350244E+02 -0.95159810755E+02  0.59678964980E+02  0.12470968218E+03  0.47000000000E+01 0.  1.
        3    1    6    6  502    0 -0.10740536900E+02 -0.42097256025E+02 -0.27509227140E+02  0.51422715560E+02  0.00000000000E+00 0. -1.
       -4    1    6    6    0  502  0.43353258662E+02  0.16595508748E+02 -0.14504391031E+02  0.48634281185E+02  0.00000000000E+00 0.  1.
</event>
<event>
12   0  0.1523332E-01  0.2116048E+03  0.7957747E-01  0.1146860E+00
        1   -1    0    0  502    0  0.00000000000E+00  0.00000000000E+00  0.20060250690E+03  0.20060250690E+03  0.00000000000E+00 0.  1.
       -1   -1    0    0    0  501  0.00000000000E+00  0.00000000000E+00 -0.25759739139E+03  0.25759739139E+03  0.00000000000E+00 0. -1.
        6    2    1    2  502    0  0.10435940094E+03 -0.61816325024E+02 -0.11222038093E+03  0.23965807331E+03  0.17358120752E+03 0.  0.
       24    2    3    3    0    0  0.92376997027E+02  0.82205311430E+01 -0.10492000850E+02  0.11548282401E+03  0.68008189561E+02 0.  0.
       -6    2    1    2    0  501 -0.10435940094E+03  0.61816325024E+02  0.55225496444E+02  0.21854182497E+03  0.17320084065E+03 0.  0.
      -24    2    5    5    0    0 -0.71572489320E+02 -0.24422975659E+02  0.16073053371E-01  0.11092040988E+03  0.81143293636E+02 0.  0.
        5    1    3    3  502    0  0.11982403914E+02 -0.70036856167E+02 -0.10172838008E+03  0.12417524930E+03  0.47000000000E+01 0. -1.
      -11    1    4    4    0    0  0.61659043575E+02 -0.38373265588E+01 -0.37992931949E+02  0.72526033999E+02  0.00000000000E+00 0.  1.
       12    1    4    4    0    0  0.30717953453E+02  0.12057857702E+02  0.27500931098E+02  0.42956790010E+02  0.00000000000E+00 0. -1.
       -5    1    5    5    0  501 -0.32786911621E+02  0.86239300683E+02  0.55209423391E+02  0.10762141509E+03  0.47000000000E+01 0.  1.
        1    1    6    6  503    0 -0.20626701008E+02  0.27708729844E+02 -0.12937983536E+02  0.36886663200E+02  0.00000000000E+00 0. -1.
       -2    1    6    6    0  503 -0.50945788312E+02 -0.52131705502E+02  0.12954056590E+02  0.74033746680E+02  0.00000000000E+00 0.  1.
</event>
<event>
12   0  0.1523332E-01  0.1933909E+03  0.7957747E-01  0.1161490E+00
       -1   -1    0    0    0  501  0.00000000000E+00  0.00000000000E+00  0.33863829627E+03  0.33863829627E+03  0.00000000000E+00 0. -1.
        1   -1    0    0  502    0  0.00000000000E+00  0.00000000000E+00 -0.11051468846E+03  0.11051468846E+03  0.00000000000E+00 0.  1.
        6    2    1    2  502    0 -0.70805431045E+02  0.68596875332E+01  0.11602973504E+03  0.22254881295E+03  0.17608126065E+03 0.  0.
       24    2    3    3    0    0  0.45173565417E+01 -0.18293181448E+02  0.11598948174E+03  0.14299832100E+03  0.81485660937E+02 0.  0.
       -6    2    1    2    0  501  0.70805431045E+02 -0.68596875332E+01  0.11209387278E+03  0.22660417178E+03  0.18364081784E+03 0.  0.
      -24    2    5    5    0    0  0.45632805235E+02  0.29181668551E+02  0.14159173238E+03  0.17345481469E+03  0.84287788960E+02 0.  0.
        5    1    3    3  502    0 -0.75322787587E+02  0.25152868981E+02  0.40253299143E-01  0.79550491942E+02  0.47000000000E+01 0. -1.
      -13    1    4    4    0    0 -0.25174828608E+02 -0.21507847625E+02  0.12676149326E+02  0.35454820076E+02  0.00000000000E+00 0.  1.
       14    1    4    4    0    0  0.29692185150E+02  0.32146661764E+01  0.10331333241E+03  0.10754350093E+03  0.00000000000E+00 0. -1.
       -5    1    5    5    0  501  0.25172625810E+02 -0.36041356084E+02 -0.29497859601E+02  0.53149357095E+02  0.47000000000E+01 0.  1.
        3    1    6    6  503    0  0.60804548707E+02  0.95486320939E+01  0.13407708141E+03  0.14752977082E+03  0.00000000000E+00 0. -1.
       -4    1    6    6    0  503 -0.15171743472E+02  0.19633036457E+02  0.75146509682E+01  0.25925043870E+02  0.00000000000E+00 0.  1.
</event>
<event>
12   0  0.1523332E-01  0.2011809E+03  0.7957747E-01  0.1155025E+00
       21   -1    0    0  501  503  0.00000000000E+00  0.00000000000E+00  0.83538426935E+03  0.83538426935E+03  0.00000000000E+00 0. -1.
       21   -1    0    0  503  504  0.00000000000E+00  0.00000000000E+00 -0.67732486612E+02  0.67732486612E+02  0.00000000000E+00 0. -1.
        6    2    1    2  501    0  0.64361837706E+02  0.79984112404E+02  0.62524606881E+03  0.65663524018E+03  0.17232901002E+03 0.  0.
       24    2    3    3    0    0  0.10427190935E+03  0.32172287024E+02  0.40820221426E+03  0.43078371979E+03  0.83892063866E+02 0.  0.
       -6    2    1    2    0  504 -0.64361837706E+02 -0.79984112404E+02  0.14240571393E+03  0.24648151578E+03  0.17301400485E+03 0.  0.
      -24    2    5    5    0    0 -0.16896517396E+02 -0.61206084730E+02  0.77675627445E+01  0.10241523690E+03  0.79980426425E+02 0.  0.
        5    1    3    3  501    0 -0.39910071639E+02  0.47811825380E+02  0.21704385455E+03  0.22585152039E+03  0.47000000000E+01 0. -1.
        4    1    4    4  502    0  0.62456903404E+02  0.59719827608E+02  0.28439939733E+03  0.29723785054E+03  0.00000000000E+00 0. -1.
       -3    1    4    4    0  502  0.41815005941E+02 -0.27547540584E+02  0.12380281693E+03  0.13354586925E+03  0.00000000000E+00 0.  1.
       -5    1    5    5    0  504 -0.47465320310E+02 -0.18778027674E+02  0.13463815118E+03  0.14406627888E+03  0.47000000000E+01 0.  1.
       11    1    6    6    0    0 -0.46125378643E+02 -0.52664711320E+02 -0.31162863724E+01  0.70077340233E+02  0.00000000000E+00 0. -1.
      -12    1    6    6    0    0  0.29228861247E+02 -0.85413734105E+01  0.10883849117E+02  0.32337896672E+02  0.00000000000E+00 0.  1.
</event>
<event>
12   0  0.1523332E-01  0.1773643E+03  0.7957747E-01  0.1175907E+00
       -2   -1    0    0    0  501  0.00000000000E+00  0.00000000000E+00  0.80916094390E+02  0.80916094390E+02  0.00000000000E+00 0. -1.
        2   -1    0    0  502    0  0.00000000000E+00  0.00000000000E+00 -0.40375964434E+03  0.40375964434E+03  0.00000000000E+00 0.  1.
        6    2    1    2  502    0  0.36773355375E+02  0.25157685702E+02 -0.11479145946E+03  0.21132418828E+03  0.17174296076E+03 0.  0.
       24    2    3    3    0    0  0.34551584724E+02 -0.41208386425E+02 -0.10687181810E+03  0.14428537479E+03  0.80651973054E+02 0.  0.
       -6    2    1    2    0  501 -0.36773355375E+02 -0.25157685702E+02 -0.20805209048E+03  0.27335155045E+03  0.17161063184E+03 0.  0.
      -24    2    5    5    0    0 -0.75956613403E+02 -0.53038166153E+02 -0.12600406952E+03  0.17813276740E+03  0.85274867923E+02 0.  0.
        5    1    3    3  502    0  0.22217706508E+01  0.66366072126E+02 -0.79196413686E+01  0.67038813487E+02  0.47000000000E+01 0. -1.
      -13    1    4    4    0    0  0.53988742109E+02 -0.50069311395E+02 -0.93774528295E+02  0.11922827842E+03  0.00000000000E+00 0.  1.
       14    1    4    4    0    0 -0.19437157385E+02  0.88609249701E+01 -0.13097289801E+02  0.25057096374E+02  0.00000000000E+00 0. -1.
       -5    1    5    5    0  501  0.39183258028E+02  0.27880480451E+02 -0.82048020969E+02  0.95218783046E+02  0.47000000000E+01 0.  1.
        3    1    6    6  503    0 -0.11503062288E+02 -0.22412762243E+02  0.78993558639E+01  0.26401745708E+02  0.00000000000E+00 0. -1.
       -4    1    6    6    0  503 -0.64453551115E+02 -0.30625403910E+02 -0.13390342538E+03  0.15173102169E+03  0.00000000000E+00 0.  1.
</event>
<event>
12   0  0.1523332E-01  0.2033850E+03  0.7957747E-01  0.1153254E+00
       -2   -1    0    0    0  501  0.00000000000E+00  0.00000000000E+00  0.98174613262E+02  0.98174613262E+02  0.00000000000E+00 0. -1.
        2   -1    0    0  502    0  0.00000000000E+00  0.00000000000E+00 -0.52618451440E+03  0.52618451440E+03  0.00000000000E+00 0.  1.
        6    2    1    2  502    0  0.81277919084E+01  0.10501762717E+03 -0.73936087190E+02  0.21559658167E+03  0.17297565731E+03 0.  0.
       24    2    3    3    0    0  0.64377172989E+02  0.30118511107E+02 -0.26368998494E+02  0.11043675862E+03  0.80308209160E+02 0.  0.
       -6    2    1    2    0  501 -0.81277919084E+01 -0.10501762717E+03 -0.35407381395E+03  0.40876254599E+03  0.17499654357E+03 0.  0.
      -24    2    5    5    0    0 -0.32976498390E+02 -0.13824072004E+03 -0.27722426526E+03  0.32130298249E+03  0.78640747609E+02 0.  0.
        5    1    3    3  502    0 -0.56249381080E+02  0.74899116063E+02 -0.47567088695E+02  0.10515982306E+03  0.47000000000E+01 0. -1.
        4    1    4    4  503    0  0.26288127312E+02 -0.18083907178E+02 -0.36161822736E+02  0.48226245551E+02  0.00000000000E+00 0. -1.
       -3    1    4    4    0  503  0.38089045676E+02  0.48202418284E+02  0.97928242417E+01  0.62210513064E+02  0.00000000000E+00 0.  1.
       -5    1    5    5    0  501  0.24848706482E+02  0.33223092870E+02 -0.76849548690E+02  0.87459563499E+02  0.47000000000E+01 0.  1.
       11    1    6    6    0    0  0.16462868114E+02 -0.17669717357E+02 -0.14854072725E+02  0.28352926031E+02  0.00000000000E+00 0. -1.
      -12    1    6    6    0    0 -0.49439366504E+02 -0.12057100268E+03 -0.26237019254E+03  0.29295005646E+03  0.00000000000E+00 0.  1.
</event>
<event>
12   0  0.1523332E-01  0.1926895E+03  0.7957747E-01  0.1162088E+00
       21   -1    0    0  504  503  0.00000000000E+00  0.00000000000E+00  0.34144901096E+03  0.34144901096E+03  0.00000000000E+00 0. -1.
       21   -1    0    0  501  504  0.00000000000E+00  0.00000000000E+00 -0.11070915104E+03  0.11070915104E+03  0.00000000000E+00 0.  1.
        6    2    1    2  501    0 -0.74821840742E+02  0.36978386135E+02  0.82881555204E+02  0.20975843436E+03  0.17367653756E+03 0.  0.
       24    2    3    3    0    0 -0.10934936670E+03  0.44857626971E+02  0.95441625189E+02  0.17188921410E+03  0.80419571068E+02 0.  0.
       -6    2    1    2    0  503  0.74821840742E+02 -0.36978386135E+02  0.14785830471E+03  0.24239972764E+03  0.17300243003E+03 0.  0.
      -24    2    5    5    0    0 -0.29101515158E+01 -0.34693097181E+02  0.13961366854E+03  0.16405721561E+03  0.78808080649E+02 0.  0.
        5    1    3    3  501    0  0.34527525956E+02 -0.78792408355E+01 -0.12560069985E+02  0.37869220257E+02  0.47000000000E+01 0. -1.
        2    1    4    4  502    0 -0.10512270874E+03  0.16988148585E+02  0.96463909295E+02  0.14368252114E+03  0.00000000000E+00 0. -1.
       -1    1    4    4    0  502 -0.42266579606E+01  0.27869478385E+02 -0.10222841059E+01  0.28206692961E+02  0.00000000000E+00 0.  1.
       -5    1    5    5    0  503  0.77731992258E+02 -0.22852889541E+01  0.82446361686E+01  0.78342512033E+02  0.47000000000E+01 0.  1.
       11    1    6    6    0    0  0.23954384854E+02 -0.49516692516E+02  0.97583381675E+02  0.11201889024E+03  0.00000000000E+00 0. -1.
      -12    1    6    6    0    0 -0.26864536370E+02  0.14823595335E+02  0.42030286869E+02  0.52038325370E+02  0.00000000000E+00 0.  1.
</event>
<event>
12   0  0.1523332E-01  0.2552133E+03  0.7957747E-01  0.1117556E+00
       21   -1    0    0  501  503  0.00000000000E+00  0.00000000000E+00  0.51370508568E+03  0.51370508568E+03  0.00000000000E+00 0. -1.
       21   -1    0    0  503  504  0.00000000000E+00  0.00000000000E+00 -0.15785766552E+03  0.15785766552E+03  0.00000000000E+00 0. -1.
        6    2    1    2  501    0  0.17208320251E+03 -0.73653145638E+02  0.32716793259E+03  0.41493696973E+03  0.17348319308E+03 0.  0.
       24    2    3    3    0    0  0.16622259380E+03 -0.11137249362E+02  0.28251783014E+03  0.33774690773E+03  0.80639074426E+02 0.  0.
       -6    2    1    2    0  504 -0.17208320251E+03  0.73653145638E+02  0.28679487571E+02  0.25662578147E+03  0.17319602841E+03 0.  0.
      -24    2    5    5    0    0 -0.17061212661E+03  0.49496334082E+02 -0.25938750709E+02  0.19670118250E+03  0.80375068112E+02 0.  0.
        5    1    3    3  501    0  0.58606087182E+01 -0.62515896276E+02  0.44650102450E+02  0.77190061993E+02  0.47000000000E+01 0. -1.
      -13    1    4    4    0    0  0.16309385549E+03 -0.29784459097E+02  0.24649106297E+03  0.29705986573E+03  0.00000000000E+00 0.  1.
       14    1    4    4    0    0  0.31287383045E+01  0.18647209735E+02  0.36026767173E+02  0.40687042006E+02  0.00000000000E+00 0. -1.
       -5    1    5    5    0  504 -0.14710759067E+01  0.24156811556E+02  0.54618238280E+02  0.59924598970E+02  0.47000000000E+01 0.  1.
        3    1    6    6  502    0 -0.20196088858E+02  0.35753438485E+02 -0.19663092744E+02  0.45528316298E+02  0.00000000000E+00 0. -1.
       -4    1    6    6    0  502 -0.15041603775E+03  0.13742895597E+02 -0.62756579648E+01  0.15117286620E+03  0.00000000000E+00 0.  1.
</event>
<event>
12   0  0.1523332E-01  0.2150968E+03  0.7957747E-01  0.1144239E+00
       21   -1    0    0  504  503  0.00000000000E+00  0.00000000000E+00  0.34851492800E+03  0.34851492800E+03  0.00000000000E+00 0.  1.
       21   -1    0    0  501  504  0.00000000000E+00  0.00000000000E+00 -0.14713503817E+03  0.14713503817E+03  0.00000000000E+00 0.  1.
        6    2    1    2  501    0 -0.11443000122E+03 -0.21386507207E+01  0.13450344332E+02  0.21551691770E+03  0.18212037516E+03 0.  0.
       24    2    3    3    0    0  0.80763930270E+01 -0.34070301218E+01 -0.30754248813E+02  0.85188250583E+02  0.78958078997E+02 0.  0.
       -6    2    1    2    0  503  0.11443000122E+03  0.21386507207E+01  0.18792954549E+03  0.28013304846E+03  0.17337304221E+03 0.  0.
      -24    2    5    5    0    0  0.34640331523E+02 -0.43153548670E+02  0.14195510347E+03  0.17740275091E+03  0.90875207279E+02 0.  0.
        5    1    3    3  501    0 -0.12250639425E+03  0.12683794012E+01  0.44204593145E+02  0.13032866712E+03  0.47000000000E+01 0. -1.
      -13    1    4    4    0    0  0.26217417223E+01 -0.26929525673E+02  0.16804524431E+02  0.31850665990E+02  0.00000000000E+00 0.  1.
       14    1    4    4    0    0  0.54546513047E+01  0.23522495551E+02 -0.47558773244E+02  0.53337584594E+02  0.00000000000E+00 0. -1.
       -5    1    5    5    0  503  0.79789669697E+02  0.45292199391E+02  0.45974442019E+02  0.10273029755E+03  0.47000000000E+01 0.  1.
        3    1    6    6  502    0  0.25171563262E+01  0.24612953681E+02  0.66783228710E+02  0.71218910423E+02  0.00000000000E+00 0. -1.
       -4    1    6    6    0  502  0.32123175196E+02 -0.67766502351E+02  0.75171874764E+02  0.10618384049E+03  0.00000000000E+00 0.  1.
</event>
<event>
12   0  0.1523332E-01  0.2125791E+03  0.7957747E-01  0.1146123E+00
       21   -1    0    0  501  503  0.00000000000E+00  0.00000000000E+00  0.95612062256E+02  0.95612062256E+02  0.00000000000E+00 0. -1.
       21   -1    0    0  503  504  0.00000000000E+00  0.00000000000E+00 -0.48568833754E+03  0.48568833754E+03  0.00000000000E+00 0. -1.
        6    2    1    2  501    0 -0.99172564422E+02  0.74145038776E+02 -0.24371619778E+03  0.32339983845E+03  0.17279232084E+03 0.  0.
       24    2    3    3    0    0 -0.58110835037E+02 -0.24713617265E+02 -0.14857850952E+03  0.18010863418E+03  0.79849324278E+02 0.  0.
       -6    2    1    2    0  504  0.99172564422E+02 -0.74145038776E+02 -0.14636007751E+03  0.25790056135E+03  0.17250722578E+03 0.  0.
      -24    2    5    5    0    0 -0.16574606401E+02 -0.20021083568E+02 -0.56697116422E+02  0.10173287368E+03  0.80370723600E+02 0.  0.
        5    1    3    3  501    0 -0.41061729385E+02  0.98858656041E+02 -0.95137688259E+02  0.14329120427E+03  0.47000000000E+01 0. -1.
      -13    1    4    4    0    0 -0.41320836514E+02  0.14581798454E+02 -0.27554043756E+02  0.51761623850E+02  0.00000000000E+00 0.  1.
       14    1    4    4    0    0 -0.16789998523E+02 -0.39295415718E+02 -0.12102446576E+03  0.12834701033E+03  0.00000000000E+00 0. -1.
       -5    1    5    5    0  504  0.11574717082E+03 -0.54123955208E+02 -0.89662961083E+02  0.15616768767E+03  0.47000000000E+01 0.  1.
        1    1    6    6  502    0 -0.29444966597E+02 -0.40659035318E+02 -0.58805830997E+02  0.77319395821E+02  0.00000000000E+00 0. -1.
       -2    1    6    6    0  502  0.12870360196E+02  0.20637951750E+02  0.21087145754E+01  0.24413477859E+02  0.00000000000E+00 0.  1.
</event>
<event>
12   0  0.1523332E-01  0.1866292E+03  0.7957747E-01  0.1167378E+00
       21   -1    0    0  501  503  0.00000000000E+00  0.00000000000E+00  0.15865555153E+03  0.15865555153E+03  0.00000000000E+00 0. -1.
       21   -1    0    0  503  504  0.00000000000E+00  0.00000000000E+00 -0.27833600024E+03  0.27833600024E+03  0.00000000000E+00 0. -1.
        6    2    1    2  501    0  0.27155467667E+02  0.68502415669E+02  0.40983789095E+02  0.19107621115E+03  0.17146558583E+03 0.  0.
       24    2    3    3    0    0 -0.24687541729E+02 -0.17204674051E+02  0.21190616113E+02  0.88864359844E+02  0.80884836116E+02 0.  0.
       -6    2    1    2    0  504 -0.27155467667E+02 -0.68502415669E+02 -0.16066423780E+03  0.24591534062E+03  0.17097180197E+03 0.  0.
      -24    2    5    5    0    0  0.42267797611E+02 -0.73300975642E+02 -0.10467522093E+03  0.15647555110E+03  0.79800353820E+02 0.  0.
        5    1    3    3  501    0  0.51843009396E+02  0.85707089721E+02  0.19793172983E+02  0.10221185131E+03  0.47000000000E+01 0. -1.
        2    1    4    4  502    0 -0.45769003478E+02 -0.81491952407E+01 -0.12465920168E+02  0.48131177298E+02  0.00000000000E+00 0. -1.
       -1    1    4    4    0  502  0.21081461749E+02 -0.90554788104E+01  0.33656536281E+02  0.40733182547E+02  0.00000000000E+00 0.  1.
       -5    1    5    5    0  504 -0.69423265278E+02  0.47985599722E+01 -0.55989016870E+02  0.89439789522E+02  0.47000000000E+01 0.  1.
       11    1    6    6    0    0  0.14517967334E+02 -0.29834062678E+02  0.66021112426E+01  0.33829433105E+02  0.00000000000E+00 0. -1.
      -12    1    6    6    0    0  0.27749830277E+02 -0.43466912964E+02 -0.11127733218E+03  0.12264611800E+03  0.00000000000E+00 0.  1.
</event>
<event>
12   0  0.1523332E-01  0.2029976E+03  0.7957747E-01  0.1153564E+00
       21   -1    0    0  501  503  0.00000000000E+00  0.00000000000E+00  0.10011733166E+03  0.10011733166E+03  0.00000000000E+00 0.  1.
       21   -1    0    0  503  504  0.00000000000E+00  0.00000000000E+00 -0.55617772387E+03  0.55617772387E+03  0.00000000000E+00 0. -1.
        6    2    1    2  501    0  0.95238077591E+02 -0.37163998293E+02 -0.58401474420E+02  0.21123155741E+03  0.17537555257E+03 0.  0.
       24    2    3    3    0    0  0.11440073673E+03  0.13648043361E+02 -0.13680263131E+02  0.14072519017E+03  0.79640642259E+02 0.  0.
       -6    2    1    2    0  504 -0.95238077591E+02  0.37163998293E+02 -0.39765891778E+03  0.44506349812E+03  0.17174821184E+03 0.  0.
      -24    2    5    5    0    0 -0.73789742674E+02  0.58692655536E+02 -0.39525423741E+03  0.41421894201E+03  0.80384487293E+02 0.  0.
        5    1    3    3  501    0 -0.19162659134E+02 -0.50812041654E+02 -0.44721211289E+02  0.70506367240E+02  0.47000000000E+01 0. -1.
      -11    1    4    4    0    0  0.11645213365E+03  0.18650179926E+02  0.81673371677E+01  0.11821858585E+03  0.00000000000E+00 0.  1.
       12    1    4    4    0    0 -0.20513969258E+01 -0.50021365649E+01 -0.21847600299E+02  0.22506604328E+02  0.00000000000E+00 0. -1.
       -5    1    5    5    0  504 -0.21448334917E+02 -0.21528657242E+02 -0.24046803748E+01  0.30844556101E+02  0.47000000000E+01 0.  1.
        3    1    6    6  502    0 -0.51628798451E+02  0.78318182792E+02 -0.31543551519E+03  0.32908788314E+03  0.00000000000E+00 0. -1.
       -4    1    6    6    0  502 -0.22160944223E+02 -0.19625527256E+02 -0.79818722213E+02  0.85131058872E+02  0.00000000000E+00 0.  1.
</event>
<event>
12   0  0.1523332E-01  0.3011230E+03  0.7957747E-01  0.1092904E+00
       21   -1    0    0  501  503  0.00000000000E+00  0.00000000000E+00  0.99777424964E+02  0.99777424964E+02  0.00000000000E+00 0. -1.
       21   -1    0    0  503  504  0.00000000000E+00  0.00000000000E+00 -0.88178918784E+03  0.88178918784E+03  0.00000000000E+00 0.  1.
        6    2    1    2  501    0  0.13767980133E+03  0.20441968547E+03 -0.35850004000E+03  0.46818512416E+03  0.17300837062E+03 0.  0.
       24    2    3    3    0    0  0.11524621956E+03  0.22227497105E+03 -0.27791311306E+03  0.38252054800E+03  0.79990107882E+02 0.  0.
       -6    2    1    2    0  504 -0.13767980133E+03 -0.20441968547E+03 -0.42351172288E+03  0.51338148864E+03  0.15315102991E+03 0.  0.
      -24    2    5    5    0    0 -0.12049006384E+03 -0.87705542656E+02 -0.21594748158E+03  0.27458726242E+03  0.80961300573E+02 0.  0.
        5    1    3    3  501    0  0.22433581768E+02 -0.17855285577E+02 -0.80586926941E+02  0.85664576154E+02  0.47000000000E+01 0. -1.
        2    1    4    4  502    0  0.50204506808E+02  0.28286891741E+02 -0.50586480008E+02  0.76678763082E+02  0.00000000000E+00 0. -1.
       -1    1    4    4    0  502  0.65041712754E+02  0.19398807931E+03 -0.22732663305E+03  0.30584178492E+03  0.00000000000E+00 0.  1.
       -5    1    5    5    0  504 -0.17189737492E+02 -0.11671414282E+03 -0.20756424130E+03  0.23879422622E+03  0.47000000000E+01 0.  1.
       11    1    6    6    0    0 -0.88825478591E+02 -0.67897133127E+02 -0.90936793147E+02  0.14411622630E+03  0.00000000000E+00 0. -1.
      -12    1    6    6    0    0 -0.31664585246E+02 -0.19808409529E+02 -0.12501068843E+03  0.13047103613E+03  0.00000000000E+00 0.  1.
</event>
<event>
12   0  0.1523332E-01  0.2711989E+03  0.7957747E-01  0.1108374E+00
       -1   -1    0    0    0  501  0.00000000000E+00  0.00000000000E+00  0.54591864723E+03  0.54591864723E+03  0.00000000000E+00 0. -1.
        1   -1    0    0  502    0  0.00000000000E+00  0.00000000000E+00 -0.13472804050E+03  0.13472804050E+03  0.00000000000E+00 0.  1.
        6    2    1    2  502    0 -0.49078107717E+02  0.20332624902E+03  0.20731377388E+03  0.34144557386E+03  0.17278846856E+03 0.  0.
       24    2    3    3    0    0 -0.94156836425E+02  0.10729306555E+03  0.14304692870E+03  0.21732151697E+03  0.79930633464E+02 0.  0.
       -6    2    1    2    0  501  0.49078107717E+02 -0.20332624902E+03  0.20387683285E+03  0.33920111388E+03  0.17245697576E+03 0.  0.
      -24    2    5    5    0    0  0.46069742956E+02 -0.14916491608E+03  0.22057413190E+03  0.28225034532E+03  0.81484454712E+02 0.  0.
        5    1    3    3  502    0  0.45078728708E+02  0.96033183468E+02  0.64266845182E+02  0.12412405689E+03  0.47000000000E+01 0. -1.
      -11    1    4    4    0    0 -0.32289898905E+02  0.38082479653E+02  0.39402848963E+01  0.50084315638E+02  0.00000000000E+00 0.  1.
       12    1    4    4    0    0 -0.61866937520E+02  0.69210585898E+02  0.13910664381E+03  0.16723720133E+03  0.00000000000E+00 0. -1.
       -5    1    5    5    0  501  0.30083647614E+01 -0.54161332935E+02 -0.16697299058E+02  0.56950768560E+02  0.47000000000E+01 0.  1.
        1    1    6    6  503    0 -0.17135171024E+02 -0.57408461285E+02  0.11011210808E+03  0.12535558168E+03  0.00000000000E+00 0. -1.
       -2    1    6    6    0  503  0.63204913979E+02 -0.91756454798E+02  0.11046202382E+03  0.15689476363E+03  0.00000000000E+00 0.  1.
</event>
<event>
12   0  0.1523332E-01  0.1938509E+03  0.7957747E-01  0.1161099E+00
       21   -1    0    0  501  503  0.00000000000E+00  0.00000000000E+00  0.96998974792E+02  0.96998974792E+02  0.00000000000E+00 0.  1.
       21   -1    0    0  503  504  0.00000000000E+00  0.00000000000E+00 -0.74581354690E+03  0.74581354690E+03  0.00000000000E+00 0.  1.
        6    2    1    2  501    0  0.21244602392E+02 -0.83385211457E+02 -0.29460505428E+02  0.19383052748E+03  0.17116636755E+03 0.  0.
       24    2    3    3    0    0 -0.47086087412E+02 -0.70120486704E+02  0.28255873462E+01  0.11695713885E+03  0.80851753857E+02 0.  0.
       -6    2    1    2    0  504 -0.21244602392E+02  0.83385211457E+02 -0.61935406668E+03  0.64898199422E+03  0.17370590744E+03 0.  0.
      -24    2    5    5    0    0 -0.60309306459E+02  0.36010941938E+02 -0.51980346378E+03  0.53192309855E+03  0.88388582001E+02 0.  0.
        5    1    3    3  501    0  0.68330689804E+02 -0.13264724752E+02 -0.32286092775E+02  0.76873388623E+02  0.47000000000E+01 0. -1.
      -13    1    4    4    0    0  0.12662067052E+02 -0.43443483026E+02  0.19745787659E+02  0.49371654720E+02  0.00000000000E+00 0.  1.
       14    1    4    4    0    0 -0.59748154464E+02 -0.26677003678E+02 -0.16920200313E+02  0.67585484135E+02  0.00000000000E+00 0. -1.
       -5    1    5    5    0  504  0.39064704067E+02  0.47374269518E+02 -0.99550602900E+02  0.11705889566E+03  0.47000000000E+01 0.  1.
        3    1    6    6  502    0  0.95832847341E+01 -0.20743451539E+02 -0.10896347869E+03  0.11133359698E+03  0.00000000000E+00 0. -1.
       -4    1    6    6    0  502 -0.69892591193E+02  0.56754393477E+02 -0.41083998510E+03  0.42058950158E+03  0.00000000000E+00 0.  1.
</event>
<event>
12   0  0.1523332E-01  0.1794668E+03  0.7957747E-01  0.1173922E+00
       21   -1    0    0  504  503  0.00000000000E+00  0.00000000000E+00  0.25128279876E+03  0.25128279876E+03  0.00000000000E+00 0.  1.
       21   -1    0    0  501  504  0.00000000000E+00  0.00000000000E+00 -0.21320815684E+03  0.21320815684E+03  0.00000000000E+00 0.  1.
        6    2    1    2  501    0  0.23528072322E+00 -0.32045365060E+02 -0.13024567238E+03  0.22174819445E+03  0.17658246173E+03 0.  0.
       24    2    3    3    0    0  0.51305211755E+01 -0.93017778843E+02 -0.86393248031E+02  0.14633782552E+03  0.72610856237E+02 0.  0.
       -6    2    1    2    0  503 -0.23528072322E+00  0.32045365060E+02  0.16832031431E+03  0.24274276115E+03  0.17194580281E+03 0.  0.
      -24    2    5    5    0    0 -0.54764814148E+01 -0.43010728496E+02  0.12086578545E+03  0.15366465119E+03  0.84405996936E+02 0.  0.
        5    1    3    3  501    0 -0.48952404522E+01  0.60972413782E+02 -0.43852424347E+02  0.75410368933E+02  0.47000000000E+01 0. -1.
        4    1    4    4  502    0  0.93371825725E+01 -0.68649737812E+02 -0.15141704696E+02  0.70917139685E+02  0.00000000000E+00 0. -1.
       -3    1    4    4    0  502 -0.42066613970E+01 -0.24368041031E+02 -0.71251543335E+02  0.75420685833E+02  0.00000000000E+00 0.  1.
       -5    1    5    5    0  503  0.52412006915E+01  0.75056093556E+02  0.47454528858E+02  0.89078109958E+02  0.47000000000E+01 0.  1.
       13    1    6    6    0    0  0.11538591120E+02  0.11373490579E+02 -0.37571927886E+01  0.16631652673E+02  0.00000000000E+00 0. -1.
      -14    1    6    6    0    0 -0.17015072535E+02 -0.54384219074E+02  0.12462297824E+03  0.13703299852E+03  0.00000000000E+00 0.  1.
</event>
<event>
12   0  0.1523332E-01  0.2018031E+03  0.7957747E-01  0.1154523E+00
       21   -1    0    0  504  503  0.00000000000E+00  0.00000000000E+00  0.59073804527E+03  0.59073804527E+03  0.00000000000E+00 0.  1.
       21   -1    0    0  501  504  0.00000000000E+00  0.00000000000E+00 -0.64065426138E+02  0.64065426138E+02  0.00000000000E+00 0.  1.
        6    2    1    2  501    0  0.70603888080E+02  0.15438239023E+02  0.25190916219E+03  0.31389372649E+03  0.17276515070E+03 0.  0.
       24    2    3    3    0    0  0.62949028020E+02  0.45534214261E+02  0.71469604232E+02  0.13074108882E+03  0.77132244746E+02 0.  0.
       -6    2    1    2    0  503 -0.70603888080E+02 -0.15438239023E+02  0.27476345694E+03  0.34090974492E+03  0.18841775042E+03 0.  0.
      -24    2    5    5    0    0 -0.12412974776E+02  0.56133322753E+02  0.19788497018E+03  0.22073877267E+03  0.79133510398E+02 0.  0.
        5    1    3    3  501    0  0.76548600597E+01 -0.30095975238E+02  0.18043955796E+03  0.18315263767E+03  0.47000000000E+01 0. -1.
        4    1    4    4  502    0  0.38527769520E+02  0.68518944601E+01 -0.71506912440E+01  0.39780269822E+02  0.00000000000E+00 0. -1.
       -3    1    4    4    0  502  0.24421258500E+02  0.38682319801E+02  0.78620295476E+02  0.90960818997E+02  0.00000000000E+00 0.  1.
       -5    1    5    5    0  503 -0.58190913304E+02 -0.71571561776E+02  0.76878486757E+02  0.12017097225E+03  0.47000000000E+01 0.  1.
       13    1    6    6    0    0  0.29061600393E+02  0.46596184533E+02  0.12050412733E+03  0.13242743573E+03  0.00000000000E+00 0. -1.
      -14    1    6    6    0    0 -0.41474575169E+02  0.95371382197E+01  0.77380842852E+02  0.88311336936E+02  0.00000000000E+00 0.  1.
</event>
<event>
12   0  0.1523332E-01  0.3569782E+03  0.7957747E-01  0.1068655E+00
       21   -1    0    0  501  503  0.00000000000E+00  0.00000000000E+00  0.32857503021E+03  0.32857503021E+03  0.00000000000E+00 0. -1.
       21   -1    0    0  503  504  0.00000000000E+00  0.00000000000E+00 -0.39733994410E+03  0.39733994410E+03  0.00000000000E+00 0.  1.
        6    2    1    2  501    0  0.27995214967E+03 -0.13800734482E+03 -0.91241200177E+02  0.36822984411E+03  0.17276871290E+03 0.  0.
       24    2    3    3    0    0  0.23799823660E+03 -0.13996482997E+03 -0.23593293156E+02  0.28846586794E+03  0.80141120739E+02 0.  0.
       -6    2    1    2    0  504 -0.27995214967E+03  0.13800734482E+03  0.22476286291E+02  0.35768513020E+03  0.17324617051E+03 0.  0.
      -24    2    5    5    0    0 -0.22590470542E+03  0.12316140729E+03  0.77068811557E+02  0.27930170144E+03  0.76603985094E+02 0.  0.
        5    1    3    3  501    0  0.41953913068E+02  0.19574851507E+01 -0.67647907020E+02  0.79763976168E+02  0.47000000000E+01 0. -1.
        4    1    4    4  502    0  0.10174067154E+03 -0.55486494019E+02  0.29498476175E+02  0.11958292253E+03  0.00000000000E+00 0. -1.
       -3    1    4    4    0  502  0.13625756506E+03 -0.84478335952E+02 -0.53091769332E+02  0.16888294541E+03  0.00000000000E+00 0.  1.
       -5    1    5    5    0  504 -0.54047444241E+02  0.14845937534E+02 -0.54592525266E+02  0.78383428766E+02  0.47000000000E+01 0.  1.
       13    1    6    6    0    0 -0.46405894388E+02 -0.66153165048E+01  0.10820593353E+02  0.48107740406E+02  0.00000000000E+00 0. -1.
      -14    1    6    6    0    0 -0.17949881104E+03  0.12977672379E+03  0.66248218204E+02  0.23119396103E+03  0.00000000000E+00 0.  1.
</event>
<event>
12   0  0.1523332E-01  0.2656740E+03  0.7957747E-01  0.1111468E+00
       21   -1    0    0  501  503  0.00000000000E+00  0.00000000000E+00  0.46942667179E+03  0.46942667179E+03  0.00000000000E+00 0.  1.
       21   -1    0    0  503  504  0.00000000000E+00  0.00000000000E+00 -0.22104313883E+03  0.22104313883E+03  0.00000000000E+00 0.  1.
        6    2    1    2  501    0  0.11125059878E+03 -0.16679492464E+03  0.32024401009E+03  0.41609963802E+03  0.17431419951E+03 0.  0.
       24    2    3    3    0    0  0.14746354154E+03 -0.14402437764E+03  0.26251329383E+03  0.34409407828E+03  0.83659953568E+02 0.  0.
       -6    2    1    2    0  504 -0.11125059878E+03  0.16679492464E+03 -0.71860477130E+02  0.27437017259E+03  0.17296768721E+03 0.  0.
      -24    2    5    5    0    0 -0.47694194186E+02  0.10585097026E+03 -0.10942291934E+03  0.17852337189E+03  0.80112764087E+02 0.  0.
        5    1    3    3  501    0 -0.36212942763E+02 -0.22770546996E+02  0.57730716257E+02  0.72005559741E+02  0.47000000000E+01 0. -1.
      -13    1    4    4    0    0  0.91972333161E+02 -0.11442265783E+03  0.12473675326E+03  0.19264140860E+03  0.00000000000E+00 0.  1.
       14    1    4    4    0    0  0.55491208378E+02 -0.29601719815E+02  0.13777654057E+03  0.15145266969E+03  0.00000000000E+00 0. -1.
       -5    1    5    5    0  504 -0.63556404590E+02  0.60943954381E+02  0.37562442209E+02  0.95846800702E+02  0.47000000000E+01 0.  1.
        3    1    6    6  502    0 -0.35670371317E+02  0.33111048087E+02 -0.89942552585E+02  0.10226621955E+03  0.00000000000E+00 0. -1.
       -4    1    6    6    0  502 -0.12023822869E+02  0.72739922172E+02 -0.19480366754E+02  0.76257152339E+02  0.00000000000E+00 0.  1.
</event>
<event>
12   0  0.1523332E-01  0.2096150E+03  0.7957747E-01  0.1148379E+00
       21   -1    0    0  501  503  0.00000000000E+00  0.00000000000E+00  0.15467275811E+03  0.15467275811E+03  0.00000000000E+00 0. -1.
       21   -1    0    0  503  504  0.00000000000E+00  0.00000000000E+00 -0.31269388603E+03  0.31269388603E+03  0.00000000000E+00 0. -1.
        6    2    1    2  501    0 -0.11611220870E+03  0.17958344783E+02 -0.47249193234E+01  0.20966820780E+03  0.17359114419E+03 0.  0.
       24    2    3    3    0    0 -0.57890677063E+02  0.29977891706E+02 -0.66309919160E+02  0.12394179145E+03  0.81942405427E+02 0.  0.
       -6    2    1    2    0  504  0.11611220870E+03 -0.17958344783E+02 -0.15329620860E+03  0.25769843635E+03  0.17059955853E+03 0.  0.
      -24    2    5    5    0    0  0.21375163731E+02 -0.43730939548E+02 -0.26795568753E+02  0.97499072397E+02  0.80117251047E+02 0.  0.
        5    1    3    3  501    0 -0.58221531637E+02 -0.12019546923E+02  0.61584999836E+02  0.85726416344E+02  0.47000000000E+01 0. -1.
      -13    1    4    4    0    0 -0.76804394444E+02  0.22275598033E+02 -0.36740262680E+02  0.88005478099E+02  0.00000000000E+00 0.  1.
       14    1    4    4    0    0  0.18913717381E+02  0.77022936726E+01 -0.29569656480E+02  0.35936313352E+02  0.00000000000E+00 0. -1.
       -5    1    5    5    0  504  0.94737044969E+02  0.25772594765E+02 -0.12650063984E+03  0.16019936395E+03  0.47000000000E+01 0.  1.
        1    1    6    6  502    0 -0.41319879369E+01 -0.52790806523E+02 -0.40963195879E+02  0.66947188099E+02  0.00000000000E+00 0. -1.
       -2    1    6    6    0  502  0.25507151668E+02  0.90598669754E+01  0.14167627126E+02  0.30551884299E+02  0.00000000000E+00 0.  1.
</event>
<event>
12   0  0.1523332E-01  0.3620765E+03  0.7957747E-01  0.1066682E+00
        2   -1    0    0  502    0  0.00000000000E+00  0.00000000000E+00  0.23813248078E+03  0.23813248078E+03  0.00000000000E+00 0.  1.
       -2   -1    0    0    0  501  0.00000000000E+00  0.00000000000E+00 -0.60031991256E+03  0.60031991256E+03  0.00000000000E+00 0. -1.
        6    2    1    2  502    0  0.30638221631E+03  0.84603407657E+02 -0.60347592336E+02  0.36704015164E+03  0.17334601800E+03 0.  0.
       24    2    3    3    0    0  0.29933880448E+03  0.10727182304E+03 -0.76408231809E+02  0.33799706560E+03  0.85398094736E+02 0.  0.
       -6    2    1    2    0  501 -0.30638221631E+03 -0.84603407657E+02 -0.30183983944E+03  0.47141224169E+03  0.17347741606E+03 0.  0.
      -24    2    5    5    0    0 -0.10966016777E+03 -0.24334113799E+02 -0.19568194925E+03  0.23984467096E+03  0.81342113545E+02 0.  0.
        5    1    3    3  502    0  0.70434118323E+01 -0.22668415383E+02  0.16060639473E+02  0.29043086036E+02  0.47000000000E+01 0. -1.
        4    1    4    4  503    0  0.14792491289E+03  0.46944339059E+02 -0.80757646638E+02  0.17494955934E+03  0.00000000000E+00 0. -1.
       -3    1    4    4    0  503  0.15141389159E+03  0.60327483982E+02  0.43494148291E+01  0.16304750627E+03  0.00000000000E+00 0.  1.
       -5    1    5    5    0  501 -0.19672204854E+03 -0.60269293858E+02 -0.10615789019E+03  0.23156757073E+03  0.47000000000E+01 0.  1.
       13    1    6    6    0    0 -0.95297922348E+02 -0.50153011877E+02 -0.13809114308E+03  0.17511762447E+03  0.00000000000E+00 0. -1.
      -14    1    6    6    0    0 -0.14362245423E+02  0.25818898079E+02 -0.57590806170E+02  0.64727046487E+02  0.00000000000E+00 0.  1.
</event>
<event>
12   0  0.1523332E-01  0.2623056E+03  0.7957747E-01  0.1113395E+00
       -1   -1    0    0    0  501  0.00000000000E+00  0.00000000000E+00  0.40770185954E+03  0.40770185954E+03  0.00000000000E+00 0. -1.
        1   -1    0    0  502    0  0.00000000000E+00  0.00000000000E+00 -0.17671207645E+03  0.17671207645E+03  0.00000000000E+00 0.  1.
        6    2    1    2  502    0 -0.14285346494E+03 -0.13603628440E+03  0.17757753884E+03  0.31696134228E+03  0.17325624687E+03 0.  0.
       24    2    3    3    0    0 -0.10096555438E+03 -0.55523892494E+02  0.17272625918E+03  0.22595328101E+03  0.89126756821E+02 0.  0.
       -6    2    1    2    0  501  0.14285346494E+03  0.13603628440E+03  0.53412244250E+02  0.26745259371E+03  0.17252547328E+03 0.  0.
      -24    2    5    5    0    0  0.68289282573E+02  0.14926942555E+03  0.24785478375E+02  0.18635687840E+03  0.84674545590E+02 0.  0.
        5    1    3    3  502    0 -0.41887910558E+02 -0.80512391905E+02  0.48512796632E+01  0.91008061267E+02  0.47000000000E+01 0. -1.
      -13    1    4    4    0    0 -0.20316495638E+02 -0.11050157773E+02 -0.68642196314E+01  0.24124334042E+02  0.00000000000E+00 0.  1.
       14    1    4    4    0    0 -0.80649058747E+02 -0.44473734721E+02  0.17959047881E+03  0.20182894697E+03  0.00000000000E+00 0. -1.
       -5    1    5    5    0  501  0.74564182370E+02 -0.13233141155E+02  0.28626765875E+02  0.81095715311E+02  0.47000000000E+01 0.  1.
        3    1    6    6  503    0  0.58115917398E+02  0.93721641100E+02  0.53985114949E+02  0.12278272884E+03  0.00000000000E+00 0. -1.
       -4    1    6    6    0  503  0.10173365175E+02  0.55547784453E+02 -0.29199636574E+02  0.63574149563E+02  0.00000000000E+00 0.  1.
</event>
<event>
12   0  0.1523332E-01  0.1979757E+03  0.7957747E-01  0.1157646E+00
        1   -1    0    0  502    0  0.00000000000E+00  0.00000000000E+00  0.83015622564E+02  0.83015622564E+02  0.00000000000E+00 0. -1.
       -1   -1    0    0    0  501  0.00000000000E+00  0.00000000000E+00 -0.48337155115E+03  0.48337155115E+03  0.00000000000E+00 0.  1.
        6    2    1    2  502    0 -0.68827865297E+02 -0.68858049292E+02 -0.15816256039E+03  0.25429840327E+03  0.17370542998E+03 0.  0.
       24    2    3    3    0    0 -0.34141543583E+02 -0.10994642748E+03 -0.93112966207E+02  0.16977068333E+03  0.83055394334E+02 0.  0.
       -6    2    1    2    0  501  0.68827865297E+02  0.68858049292E+02 -0.24219336820E+03  0.31208877044E+03  0.17106451135E+03 0.  0.
      -24    2    5    5    0    0 -0.20845951905E+02  0.21180129478E+02 -0.59064086836E+02  0.10262994102E+03  0.78493228022E+02 0.  0.
        5    1    3    3  502    0 -0.34686321715E+02  0.41088378185E+02 -0.65049594185E+02  0.84527719948E+02  0.47000000000E+01 0. -1.
      -13    1    4    4    0    0  0.20862645467E+02 -0.91574852168E+01 -0.33178995343E+02  0.40248667598E+02  0.00000000000E+00 0.  1.
       14    1    4    4    0    0 -0.55004189050E+02 -0.10078894226E+03 -0.59933970863E+02  0.12952201573E+03  0.00000000000E+00 0. -1.
       -5    1    5    5    0  501  0.89673817202E+02  0.47677919814E+02 -0.18312928136E+03  0.20945882942E+03  0.47000000000E+01 0.  1.
        1    1    6    6  503    0 -0.93146890531E+01  0.46554381647E+02 -0.57704328115E+02  0.74725252532E+02  0.00000000000E+00 0. -1.
       -2    1    6    6    0  503 -0.11531262852E+02 -0.25374252169E+02 -0.13597587202E+01  0.27904688492E+02  0.00000000000E+00 0.  1.
</event>
<event>
12   0  0.1523332E-01  0.1914926E+03  0.7957747E-01  0.1163116E+00
       21   -1    0    0  501  503  0.00000000000E+00  0.00000000000E+00  0.76548504562E+03  0.76548504562E+03  0.00000000000E+00 0.  1.
       21   -1    0    0  503  504  0.00000000000E+00  0.00000000000E+00 -0.39987010915E+03  0.39987010915E+03  0.00000000000E+00 0.  1.
        6    2    1    2  501    0  0.24218911419E+02 -0.78001854599E+02  0.72957262805E+03  0.75409536406E+03  0.17237387707E+03 0.  0.
       24    2    3    3    0    0 -0.64948272750E+01 -0.11441889773E+03  0.49270020912E+03  0.51243409776E+03  0.81861722112E+02 0.  0.
       -6    2    1    2    0  504 -0.24218911419E+02  0.78001854599E+02 -0.36395769158E+03  0.41125979071E+03  0.17320095035E+03 0.  0.
      -24    2    5    5    0    0  0.25891108687E+02  0.33696384660E+02 -0.31459570273E+03  0.32799704559E+03  0.82497332643E+02 0.  0.
        5    1    3    3  501    0  0.30713738694E+02  0.36417043128E+02  0.23687241893E+03  0.24166126629E+03  0.47000000000E+01 0. -1.
        4    1    4    4  502    0  0.34405543923E+02 -0.80793926995E+02  0.29920226292E+03  0.31182269678E+03  0.00000000000E+00 0. -1.
       -3    1    4    4    0  502 -0.40900371198E+02 -0.33624970732E+02  0.19349794620E+03  0.20061140098E+03  0.00000000000E+00 0.  1.
       -5    1    5    5    0  504 -0.50110020106E+02  0.44305469939E+02 -0.49361988855E+02  0.83262745122E+02  0.47000000000E+01 0.  1.
       13    1    6    6    0    0  0.34775469362E+02  0.53897254795E+02 -0.16945874610E+03  0.18119192579E+03  0.00000000000E+00 0. -1.
      -14    1    6    6    0    0 -0.88843606745E+01 -0.20200870135E+02 -0.14513695663E+03  0.14680511980E+03  0.00000000000E+00 0.  1.
</event>
<event>
12   0  0.1523332E-01  0.1809695E+03  0.7957747E-01  0.1172521E+00
       21   -1    0    0  501  503  0.00000000000E+00  0.00000000000E+00  0.18060888658E+03  0.18060888658E+03  0.00000000000E+00 0.  1.
       21   -1    0    0  503  504  0.00000000000E+00  0.00000000000E+00 -0.21456103520E+03  0.21456103520E+03  0.00000000000E+00 0. -1.
        6    2    1    2  501    0  0.21171994027E+02 -0.48553714935E+02  0.60856893018E+02  0.19092805651E+03  0.17304405442E+03 0.  0.
       24    2    3    3    0    0 -0.31867881929E+02 -0.72526584606E+02  0.13478557384E+02  0.11573016020E+03  0.83283438313E+02 0.  0.
       -6    2    1    2    0  504 -0.21171994027E+02  0.48553714935E+02 -0.94809041631E+02  0.20424186527E+03  0.17297476287E+03 0.  0.
      -24    2    5    5    0    0  0.85894371345E+01  0.90118650727E+02 -0.37003892320E+02  0.12693137466E+03  0.80914375646E+02 0.  0.
        5    1    3    3  501    0  0.53039875956E+02  0.23972869671E+02  0.47378335635E+02  0.75197896309E+02  0.47000000000E+01 0. -1.
        4    1    4    4  502    0 -0.44784389269E+02 -0.20724371846E+02 -0.19407245314E+02  0.53026241440E+02  0.00000000000E+00 0. -1.
       -3    1    4    4    0  502  0.12916507339E+02 -0.51802212760E+02  0.32885802698E+02  0.62703918759E+02  0.00000000000E+00 0.  1.
       -5    1    5    5    0  504 -0.29761431162E+02 -0.41564935792E+02 -0.57805149312E+02  0.77310490615E+02  0.47000000000E+01 0.  1.
       13    1    6    6    0    0 -0.32122807985E+02  0.46081603457E+02  0.54143045447E+00  0.56175458316E+02  0.00000000000E+00 0. -1.
      -14    1    6    6    0    0  0.40712245120E+02  0.44037047270E+02 -0.37545322774E+02  0.70755916340E+02  0.00000000000E+00 0.  1.
</event>
<event>
12   0  0.1523332E-01  0.1961645E+03  0.7957747E-01  0.1159150E+00
       21   -1    0    0  501  503  0.00000000000E+00  0.00000000000E+00  0.18934364684E+03  0.18934364684E+03  0.00000000000E+00 0. -1.
       21   -1    0    0  503  504  0.00000000000E+00  0.00000000000E+00 -0.20384980549E+03  0.20384980549E+03  0.00000000000E+00 0. -1.
        6    2    1    2  501    0 -0.90826955320E+02  0.92303395424E+01 -0.18976288920E+02  0.19708026208E+03  0.17362544508E+03 0.  0.
       24    2    3    3    0    0 -0.30502005087E+02  0.63282243879E+02 -0.58251607751E+02  0.10693954624E+03  0.55747663983E+02 0.  0.
       -6    2    1    2    0  504  0.90826955320E+02 -0.92303395424E+01  0.44701302688E+01  0.19611319025E+03  0.17350984509E+03 0.  0.
      -24    2    5    5    0    0  0.11652205552E+03 -0.41130112180E+02  0.26549135786E+02  0.14934347619E+03  0.79558417012E+02 0.  0.
        5    1    3    3  501    0 -0.60324950233E+02 -0.54051904337E+02  0.39275318831E+02  0.90140715841E+02  0.47000000000E+01 0. -1.
      -13    1    4    4    0    0 -0.12818179385E+02  0.58862401562E+02 -0.18193485410E+02  0.62929253545E+02  0.00000000000E+00 0.  1.
       14    1    4    4    0    0 -0.17683825701E+02  0.44198423178E+01 -0.40058122341E+02  0.44010292694E+02  0.00000000000E+00 0. -1.
       -5    1    5    5    0  504 -0.25695100204E+02  0.31899772638E+02 -0.22079005517E+02  0.46769714062E+02  0.47000000000E+01 0.  1.
        1    1    6    6  502    0  0.67428579943E+02  0.18310466531E+02  0.12340946410E+02  0.70951994588E+02  0.00000000000E+00 0. -1.
       -2    1    6    6    0  502  0.49093475580E+02 -0.59440578711E+02  0.14208189375E+02  0.78391481599E+02  0.00000000000E+00 0.  1.
</event>
<event>
12   0  0.1523332E-01  0.2703788E+03  0.7957747E-01  0.1108828E+00
        1   -1    0    0  502    0  0.00000000000E+00  0.00000000000E+00  0.14713856923E+03  0.14713856923E+03  0.00000000000E+00 0. -1.
       -1   -1    0    0    0  501  0.00000000000E+00  0.00000000000E+00 -0.51357537033E+03  0.51357537033E+03  0.00000000000E+00 0.  1.
        6    2    1    2  502    0 -0.20570875630E+03  0.33930764614E+02 -0.12338509949E+03  0.29691831891E+03  0.17166600165E+03 0.  0.
       24    2    3    3    0    0 -0.28677028022E+02  0.27160493001E+02 -0.18596958799E+02  0.91033123170E+02  0.79881902339E+02 0.  0.
       -6    2    1    2    0  501  0.20570875630E+03 -0.33930764614E+02 -0.24305170162E+03  0.36379562065E+03  0.17264337445E+03 0.  0.
      -24    2    5    5    0    0  0.82900496979E+02  0.34086539399E+01 -0.39625365211E+02  0.12321202795E+03  0.82017820877E+02 0.  0.
        5    1    3    3  502    0 -0.17703172828E+03  0.67702716130E+01 -0.10478814069E+03  0.20588519574E+03  0.47000000000E+01 0. -1.
        2    1    4    4  503    0 -0.20674684926E+02  0.72706194968E+01  0.30443256872E+02  0.37511283551E+02  0.00000000000E+00 0. -1.
       -1    1    4    4    0  503 -0.80023430956E+01  0.19889873504E+02 -0.49040215672E+02  0.53521839619E+02  0.00000000000E+00 0.  1.
       -5    1    5    5    0  501  0.12280825932E+03 -0.37339418554E+02 -0.20342633641E+03  0.24058359271E+03  0.47000000000E+01 0.  1.
       11    1    6    6    0    0  0.87983944326E+02 -0.18433749633E+02 -0.17253496456E+02  0.91535024579E+02  0.00000000000E+00 0. -1.
      -12    1    6    6    0    0 -0.50834473471E+01  0.21842403573E+02 -0.22371868754E+02  0.31677003367E+02  0.00000000000E+00 0.  1.
</event>
<event>
12   0  0.1523332E-01  0.2653394E+03  0.7957747E-01  0.1111658E+00
       21   -1    0    0  504  503  0.00000000000E+00  0.00000000000E+00  0.18024152136E+03  0.18024152136E+03  0.00000000000E+00 0. -1.
       21   -1    0    0  501  504  0.00000000000E+00  0.00000000000E+00 -0.39173982071E+03  0.39173982071E+03  0.00000000000E+00 0.  1.
        6    2    1    2  501    0  0.14917734250E+03 -0.13388899274E+03 -0.12733451984E+03  0.29431118210E+03  0.17385295532E+03 0.  0.
       24    2    3    3    0    0  0.13309795631E+03 -0.16194318024E+03 -0.13525574437E+03  0.26068946450E+03  0.75658581253E+02 0.  0.
       -6    2    1    2    0  503 -0.14917734250E+03  0.13388899274E+03 -0.84163779516E+02  0.27767015997E+03  0.17273399800E+03 0.  0.
      -24    2    5    5    0    0 -0.16974757921E+03  0.14548166312E+03 -0.87803878878E+02  0.25332134135E+03  0.80517239672E+02 0.  0.
        5    1    3    3  501    0  0.16079386190E+02  0.28054187496E+02  0.79212245297E+01  0.33621717600E+02  0.47000000000E+01 0. -1.
        2    1    4    4  502    0  0.93127371943E+02 -0.62940975797E+02 -0.45704271337E+02  0.12133900551E+03  0.00000000000E+00 0. -1.
       -1    1    4    4    0  502  0.39970584362E+02 -0.99002204443E+02 -0.89551473031E+02  0.13935045899E+03  0.00000000000E+00 0.  1.
       -5    1    5    5    0  503  0.20570236718E+02 -0.11592670376E+02  0.36400993621E+01  0.24348818625E+02  0.47000000000E+01 0.  1.
       11    1    6    6    0    0 -0.13147579171E+03  0.64942391985E+02 -0.69568378117E+02  0.16230575257E+03  0.00000000000E+00 0. -1.
      -12    1    6    6    0    0 -0.38271787504E+02  0.80539271134E+02 -0.18235500762E+02  0.91015588784E+02  0.00000000000E+00 0.  1.
</event>
<event>
12   0  0.1523332E-01  0.2276146E+03  0.7957747E-01  0.1135273E+00
       -2   -1    0    0    0  501  0.00000000000E+00  0.00000000000E+00  0.13827717956E+03  0.13827717956E+03  0.00000000000E+00 0.  1.
        2   -1    0    0  502    0  0.00000000000E+00  0.00000000000E+00 -0.51701591917E+03  0.51701591917E+03  0.00000000000E+00 0. -1.
        6    2    1    2  502    0  0.14168125299E+03  0.36082559353E+02 -0.17865323823E+02  0.22899828845E+03  0.17534399841E+03 0.  0.
       24    2    3    3    0    0  0.48409739450E+01 -0.54284722245E+01 -0.22372294125E+02  0.85852102703E+02  0.82566098701E+02 0.  0.
       -6    2    1    2    0  501 -0.14168125299E+03 -0.36082559353E+02 -0.36087341578E+03  0.42629481028E+03  0.17355723699E+03 0.  0.
      -24    2    5    5    0    0 -0.12132027234E+03  0.21142950603E+02 -0.32271957046E+03  0.35441202766E+03  0.79336822207E+02 0.  0.
        5    1    3    3  502    0  0.13684027905E+03  0.41511031578E+02  0.45069703026E+01  0.14314618575E+03  0.47000000000E+01 0. -1.
      -13    1    4    4    0    0  0.43738033899E+02 -0.14501110743E+01 -0.12842153304E+02  0.45607448218E+02  0.00000000000E+00 0.  1.
       14    1    4    4    0    0 -0.38897059954E+02 -0.39783611503E+01 -0.95301408218E+01  0.40244654485E+02  0.00000000000E+00 0. -1.
       -5    1    5    5    0  501 -0.20360980658E+02 -0.57225509957E+02 -0.38153845327E+02  0.71882782614E+02  0.47000000000E+01 0.  1.
        1    1    6    6  503    0 -0.76714958776E+02  0.51493497901E+02 -0.21129047975E+03  0.23060882910E+03  0.00000000000E+00 0. -1.
       -2    1    6    6    0  503 -0.44605313560E+02 -0.30350547298E+02 -0.11142909071E+03  0.12380319856E+03  0.00000000000E+00 0.  1.
</event>
<event>
12   0  0.1523332E-01  0.1780262E+03  0.7957747E-01  0.1175278E+00
       21   -1    0    0  504  503  0.00000000000E+00  0.00000000000E+00  0.21806666710E+03  0.21806666710E+03  0.00000000000E+00 0. -1.
       21   -1    0    0  501  504  0.00000000000E+00  0.00000000000E+00 -0.18445096845E+03  0.18445096845E+03  0.00000000000E+00 0. -1.
        6    2    1    2  501    0  0.14236334936E+02  0.29598592896E+02 -0.76957022231E+02  0.19394769336E+03  0.17497021048E+03 0.  0.
       24    2    3    3    0    0  0.53185339607E+02 -0.18016550057E+02  0.34334437098E+00  0.95045400766E+02  0.76682683158E+02 0.  0.
       -6    2    1    2    0  503 -0.14236334936E+02 -0.29598592896E+02  0.11057272088E+03  0.20856994218E+03  0.17377095340E+03 0.  0.
      -24    2    5    5    0    0  0.41590929695E+02 -0.78888232928E+01  0.11739945565E+03  0.14809935528E+03  0.79741757464E+02 0.  0.
        5    1    3    3  501    0 -0.38949004671E+02  0.47615142953E+02 -0.77300366602E+02  0.98902292593E+02  0.47000000000E+01 0. -1.
        4    1    4    4  502    0  0.20177915933E+02  0.29044606633E+02  0.10011412203E+02  0.36755487211E+02  0.00000000000E+00 0. -1.
       -3    1    4    4    0  502  0.33007423674E+02 -0.47061156690E+02 -0.96680678324E+01  0.58289913554E+02  0.00000000000E+00 0.  1.
       -5    1    5    5    0  503 -0.55827264631E+02 -0.21709769603E+02 -0.68267347647E+01  0.60470586899E+02  0.47000000000E+01 0.  1.
       13    1    6    6    0    0  0.28223411426E+02  0.33311927584E+02  0.78771638443E+02  0.90062292303E+02  0.00000000000E+00 0. -1.
      -14    1    6    6    0    0  0.13367518269E+02 -0.41200750877E+02  0.38627817205E+02  0.58037062981E+02  0.00000000000E+00 0.  1.
</event>
<event>
12   0  0.1523332E-01  0.2477701E+03  0.7957747E-01  0.1122085E+00
       21   -1    0    0  504  503  0.00000000000E+00  0.00000000000E+00  0.67193463947E+03  0.67193463947E+03  0.00000000000E+00 0. -1.
       21   -1    0    0  501  504  0.00000000000E+00  0.00000000000E+00 -0.95294293522E+02  0.95294293522E+02  0.00000000000E+00 0.  1.
        6    2    1    2  501    0  0.19825165356E+02  0.17685085897E+03  0.20834137079E+03  0.32372236831E+03  0.17239716200E+03 0.  0.
       24    2    3    3    0    0 -0.36182876289E+02  0.72330717001E+02  0.47330090573E+02  0.12370216143E+03  0.80753663140E+02 0.  0.
       -6    2    1    2    0  503 -0.19825165356E+02 -0.17685085897E+03  0.36829897516E+03  0.44350656468E+03  0.17141958555E+03 0.  0.
      -24    2    5    5    0    0 -0.18363625873E+02 -0.13626806329E+03  0.36848289950E+03  0.40262596743E+03  0.86149954171E+02 0.  0.
        5    1    3    3  501    0  0.56008041645E+02  0.10452014196E+03  0.16101128022E+03  0.20002020688E+03  0.47000000000E+01 0. -1.
        4    1    4    4  502    0 -0.25866535473E+02  0.19304489888E+02  0.60077036853E+02  0.68198176986E+02  0.00000000000E+00 0. -1.
       -3    1    4    4    0  502 -0.10316340816E+02  0.53026227113E+02 -0.12746946281E+02  0.55503984444E+02  0.00000000000E+00 0.  1.
       -5    1    5    5    0  503 -0.14615394836E+01 -0.40582795679E+02 -0.18392433759E+00  0.40880597243E+02  0.47000000000E+01 0.  1.
       11    1    6    6    0    0 -0.47247725406E+01 -0.54624948089E+02  0.26241739046E+03  0.26808411972E+03  0.00000000000E+00 0. -1.
      -12    1    6    6    0    0 -0.13638853332E+02 -0.81643115197E+02  0.10606550903E+03  0.13454184771E+03  0.00000000000E+00 0.  1.
</event>
<event>
12   0  0.1523332E-01  0.1977425E+03  0.7957747E-01  0.1157838E+00
       21   -1    0    0  504  503  0.00000000000E+00  0.00000000000E+00  0.11842543434E+03  0.11842543434E+03  0.00000000000E+00 0.  1.
       21   -1    0    0  501  504  0.00000000000E+00  0.00000000000E+00 -0.37883302084E+03  0.37883302084E+03  0.00000000000E+00 0.  1.
        6    2    1    2  501    0 -0.16199318826E+02 -0.26318848910E+02 -0.23860642599E+03  0.29831780663E+03  0.17636719505E+03 0.  0.
       24    2    3    3    0    0 -0.46163641538E+02  0.37995226094E+02 -0.93021108952E+02  0.13629516804E+03  0.79678900053E+02 0.  0.
       -6    2    1    2    0  503  0.16199318826E+02  0.26318848910E+02 -0.21801160503E+02  0.19894064855E+03  0.19531254775E+03 0.  0.
      -24    2    5    5    0    0  0.18692298116E+02 -0.70823120079E+01 -0.90668391154E+02  0.12221621989E+03  0.79476324127E+02 0.  0.
        5    1    3    3  501    0  0.29964322712E+02 -0.64314075004E+02 -0.14558531704E+03  0.16202263860E+03  0.47000000000E+01 0. -1.
        2    1    4    4  502    0 -0.42334681662E+01  0.52277881533E+02 -0.34017609913E+02  0.62514773730E+02  0.00000000000E+00 0. -1.
       -1    1    4    4    0  502 -0.41930173372E+02 -0.14282655439E+02 -0.59003499039E+02  0.73780394308E+02  0.00000000000E+00 0.  1.
       -5    1    5    5    0  503 -0.24929792899E+01  0.33401160918E+02  0.68867230651E+02  0.76724428665E+02  0.47000000000E+01 0.  1.
       13    1    6    6    0    0  0.42505652387E+02  0.18515602010E+02 -0.59060460259E+02  0.75084592086E+02  0.00000000000E+00 0. -1.
      -14    1    6    6    0    0 -0.23813354271E+02 -0.25597914018E+02 -0.31607930895E+02  0.47131627801E+02  0.00000000000E+00 0.  1.
</event>
<event>
12   0  0.1523332E-01  0.3120022E+03  0.7957747E-01  0.1087755E+00
        2   -1    0    0  502    0  0.00000000000E+00  0.00000000000E+00  0.55412053556E+03  0.55412053556E+03  0.00000000000E+00 0.  1.
       -2   -1    0    0    0  501  0.00000000000E+00  0.00000000000E+00 -0.17571332645E+03  0.17571332645E+03  0.00000000000E+00 0. -1.
        6    2    1    2  502    0  0.22561524174E+03 -0.11719196087E+03  0.18741719211E+03  0.36013306075E+03  0.17301567717E+03 0.  0.
       24    2    3    3    0    0  0.75724761836E+02 -0.11167412744E+03  0.98337767951E+02  0.18561992009E+03  0.81111576451E+02 0.  0.
       -6    2    1    2    0  501 -0.22561524174E+03  0.11719196087E+03  0.19099001700E+03  0.36970080127E+03  0.18858765301E+03 0.  0.
      -24    2    5    5    0    0 -0.20771375575E+03  0.25265780484E+02  0.13279589339E+03  0.25933988489E+03  0.76413759248E+02 0.  0.
        5    1    3    3  502    0  0.14989047990E+03 -0.55178334219E+01  0.89079424160E+02  0.17451314065E+03  0.47000000000E+01 0. -1.
        2    1    4    4  503    0 -0.25606713328E+00 -0.68803693992E+02  0.31258860247E+02  0.75572020095E+02  0.00000000000E+00 0. -1.
       -1    1    4    4    0  503  0.75980828970E+02 -0.42870433453E+02  0.67078907704E+02  0.11004790000E+03  0.00000000000E+00 0.  1.
       -5    1    5    5    0  501 -0.17901485987E+02  0.91926180383E+02  0.58194123610E+02  0.11036091637E+03  0.47000000000E+01 0.  1.
       13    1    6    6    0    0 -0.81407252224E+02  0.44115525294E+02  0.37057220462E+02  0.99732431410E+02  0.00000000000E+00 0. -1.
      -14    1    6    6    0    0 -0.12630650353E+03 -0.18849744810E+02  0.95738672928E+02  0.15960745348E+03  0.00000000000E+00 0.  1.
</event>
<event>
12   0  0.1523332E-01  0.2016716E+03  0.7957747E-01  0.1154629E+00
       -2   -1    0    0    0  501  0.00000000000E+00  0.00000000000E+00  0.34813311253E+02  0.34813311253E+02  0.00000000000E+00 0. -1.
        2   -1    0    0  502    0  0.00000000000E+00  0.00000000000E+00 -0.13675558353E+04  0.13675558353E+04  0.00000000000E+00 0.  1.
        6    2    1    2  502    0  0.65816918990E+02  0.79383454182E+02 -0.39708123275E+03  0.44509848748E+03  0.17264286412E+03 0.  0.
       24    2    3    3    0    0  0.77655437569E+02 -0.14999558737E+01 -0.29025959263E+03  0.31050565951E+03  0.78297615668E+02 0.  0.
       -6    2    1    2    0  501 -0.65816918990E+02 -0.79383454182E+02 -0.93566129128E+03  0.95727065906E+03  0.17398696234E+03 0.  0.
      -24    2    5    5    0    0 -0.74200497256E+02  0.69230979957E+01 -0.48365524105E+03  0.49699827799E+03  0.86782792329E+02 0.  0.
        5    1    3    3  502    0 -0.11838518580E+02  0.80883410055E+02 -0.10682164012E+03  0.13459282797E+03  0.47000000000E+01 0. -1.
        4    1    4    4  503    0  0.50173579653E+02 -0.37277218704E+02 -0.20097362472E+03  0.21046942049E+03  0.00000000000E+00 0. -1.
       -3    1    4    4    0  503  0.27481857917E+02  0.35777262830E+02 -0.89285967918E+02  0.10003623902E+03  0.00000000000E+00 0.  1.
       -5    1    5    5    0  501  0.83835782662E+01 -0.86306552177E+02 -0.45200605023E+03  0.46027238107E+03  0.47000000000E+01 0.  1.
       11    1    6    6    0    0 -0.50202842188E+02  0.24730871306E+02 -0.12330084800E+03  0.13540694398E+03  0.00000000000E+00 0. -1.
      -12    1    6    6    0    0 -0.23997655068E+02 -0.17807773310E+02 -0.36035439305E+03  0.36159133401E+03  0.00000000000E+00 0.  1.
</event>
<event>
12   0  0.1523332E-01  0.1933526E+03  0.7957747E-01  0.1161522E+00
       -2   -1    0    0    0  501  0.00000000000E+00  0.00000000000E+00  0.36080798367E+03  0.36080798367E+03  0.00000000000E+00 0.  1.
        2   -1    0    0  502    0  0.00000000000E+00  0.00000000000E+00 -0.45570897917E+03  0.45570897917E+03  0.00000000000E+00 0. -1.
        6    2    1    2  502    0  0.39899613116E+02  0.76390237611E+02  0.31140042135E+03  0.36659571136E+03  0.17318991207E+03 0.  0.
       24    2    3    3    0    0  0.77299917409E+02  0.60962945002E+02  0.13731150669E+03  0.18780582260E+03  0.82004995187E+02 0.  0.
       -6    2    1    2    0  501 -0.39899613116E+02 -0.76390237611E+02 -0.40630141686E+03  0.44992125148E+03  0.17297642518E+03 0.  0.
      -24    2    5    5    0    0 -0.50731733184E+02 -0.54668591300E+02 -0.41042596737E+03  0.42485600342E+03  0.80565410184E+02 0.  0.
        5    1    3    3  502    0 -0.37400304292E+02  0.15427292609E+02  0.17408891465E+03  0.17878988876E+03  0.47000000000E+01 0. -1.
      -11    1    4    4    0    0  0.42325324685E+02  0.39943500185E+02  0.13491354565E+03  0.14693053160E+03  0.00000000000E+00 0.  1.
       12    1    4    4    0    0  0.34974592723E+02  0.21019444817E+02  0.23979610420E+01  0.40875290993E+02  0.00000000000E+00 0. -1.
       -5    1    5    5    0  501  0.10832120067E+02 -0.21721646311E+02  0.41245505184E+01  0.25065248066E+02  0.47000000000E+01 0.  1.
        1    1    6    6  503    0 -0.32417366104E+02 -0.27339107884E+02 -0.63405309566E+02  0.76279392539E+02  0.00000000000E+00 0. -1.
       -2    1    6    6    0  503 -0.18314367079E+02 -0.27329483416E+02 -0.34702065781E+03  0.34857661088E+03  0.00000000000E+00 0.  1.
</event>
<event>
12   0  0.1523332E-01  0.2080263E+03  0.7957747E-01  0.1149604E+00
       21   -1    0    0  504  503  0.00000000000E+00  0.00000000000E+00  0.14613977735E+04  0.14613977735E+04  0.00000000000E+00 0. -1.
       21   -1    0    0  501  504  0.00000000000E+00  0.00000000000E+00 -0.46028372568E+02  0.46028372568E+02  0.00000000000E+00 0. -1.
        6    2    1    2  501    0 -0.81241766532E+02  0.82812544759E+02  0.25726695277E+03  0.33078846954E+03  0.17255893020E+03 0.  0.
       24    2    3    3    0    0  0.42700852944E+01  0.88853884288E+02  0.13484869038E+03  0.18126557646E+03  0.82217963562E+02 0.  0.
       -6    2    1    2    0  503  0.81241766532E+02 -0.82812544759E+02  0.11581024481E+04  0.11766376765E+04  0.17267541572E+03 0.  0.
      -24    2    5    5    0    0  0.31672387347E+02  0.23114339178E+01  0.28452882387E+03  0.29751528337E+03  0.80933363817E+02 0.  0.
        5    1    3    3  501    0 -0.85511851827E+02 -0.60413395291E+01  0.12241826239E+03  0.14952289307E+03  0.47000000000E+01 0. -1.
      -11    1    4    4    0    0  0.34947546776E+02  0.29070991839E+02  0.23399739882E+02  0.51127306000E+02  0.00000000000E+00 0.  1.
       12    1    4    4    0    0 -0.30677461482E+02  0.59782892449E+02  0.11144895050E+03  0.13013827047E+03  0.00000000000E+00 0. -1.
       -5    1    5    5    0  503  0.49569379185E+02 -0.85123978677E+02  0.87357362427E+03  0.87912239314E+03  0.47000000000E+01 0.  1.
        1    1    6    6  502    0  0.52165644997E+02 -0.15676049447E+02  0.23225687344E+03  0.23855868943E+03  0.00000000000E+00 0. -1.
       -2    1    6    6    0  502 -0.20493257650E+02  0.17987483364E+02  0.52271950438E+02  0.58956593944E+02  0.00000000000E+00 0.  1.
</event>
<event>
12   0  0.1523332E-01  0.2470857E+03  0.7957747E-01  0.1122510E+00
        1   -1    0    0  502    0  0.00000000000E+00  0.00000000000E+00  0.94309911469E+03  0.94309911469E+03  0.00000000000E+00 0. -1.
       -1   -1    0    0    0  501  0.00000000000E+00  0.00000000000E+00 -0.14890521659E+03  0.14890521659E+03  0.00000000000E+00 0.  1.
        6    2    1    2  502    0  0.11643475360E+03  0.13212542486E+03  0.80790768842E+03  0.84497513412E+03  0.17393666819E+03 0.  0.
       24    2    3    3    0    0  0.79929059303E+02  0.16522767220E+03  0.63493207241E+03  0.66505549032E+03  0.73967766230E+02 0.  0.
       -6    2    1    2    0  501 -0.11643475360E+03 -0.13212542486E+03 -0.13713790316E+02  0.24702919716E+03  0.17268809010E+03 0.  0.
      -24    2    5    5    0    0 -0.14919513175E+03 -0.12281580339E+03 -0.25289737223E+02  0.21075242806E+03  0.80212880670E+02 0.  0.
        5    1    3    3  502    0  0.36505694294E+02 -0.33102247337E+02  0.17297561601E+03  0.17991964381E+03  0.47000000000E+01 0. -1.
        2    1    4    4  503    0  0.62842354075E+02  0.90870589239E+02  0.47743572899E+03  0.49005254899E+03  0.00000000000E+00 0. -1.
       -1    1    4    4    0  503  0.17086705229E+02  0.74357082960E+02  0.15749634342E+03  0.17500294133E+03  0.00000000000E+00 0.  1.
       -5    1    5    5    0  501  0.32760378156E+02 -0.93096214721E+01  0.11575946906E+02  0.36276769090E+02  0.47000000000E+01 0.  1.
       11    1    6    6    0    0  0.26952470365E+01 -0.16855817062E+02  0.13223288002E+02  0.21592551285E+02  0.00000000000E+00 0. -1.
      -12    1    6    6    0    0 -0.15189037879E+03 -0.10595998633E+03 -0.38513025225E+02  0.18915987678E+03  0.00000000000E+00 0.  1.
</event>
<event>
12   0  0.1523332E-01  0.2357677E+03  0.7957747E-01  0.1129766E+00
       21   -1    0    0  501  503  0.00000000000E+00  0.00000000000E+00  0.98721499858E+02  0.98721499858E+02  0.00000000000E+00 0.  1.
       21   -1    0    0  503  504  0.00000000000E+00  0.00000000000E+00 -0.65777488920E+03  0.65777488920E+03  0.00000000000E+00 0.  1.
        6    2    1    2  501    0 -0.10559861931E+03  0.12065395190E+03 -0.13510921245E+03  0.27173687635E+03  0.17285249831E+03 0.  0.
       24    2    3    3    0    0 -0.11001828988E+03  0.42538428919E+02 -0.40930625391E+02  0.14920824835E+03  0.81696041754E+02 0.  0.
       -6    2    1    2    0  504  0.10559861931E+03 -0.12065395190E+03 -0.42394417689E+03  0.48475951270E+03  0.17191473330E+03 0.  0.
      -24    2    5    5    0    0  0.15629898035E+02 -0.47246127219E+02 -0.91237776294E+02  0.13234112707E+03  0.81935046480E+02 0.  0.
        5    1    3    3  501    0  0.44196705709E+01  0.78115522981E+02 -0.94178587059E+02  0.12252862800E+03  0.47000000000E+01 0. -1.
        4    1    4    4  502    0 -0.66855335947E+02  0.14718244571E+02  0.18256959982E+02  0.70848989093E+02  0.00000000000E+00 0. -1.
       -3    1    4    4    0  502 -0.43162953938E+02  0.27820184348E+02 -0.59187585372E+02  0.78359259262E+02  0.00000000000E+00 0.  1.
       -5    1    5    5    0  504  0.89968721279E+02 -0.73407824681E+02 -0.33270640060E+03  0.35241838563E+03  0.47000000000E+01 0.  1.
       13    1    6    6    0    0 -0.44060605203E+01 -0.66053321828E+02 -0.76471202004E+02  0.10114494268E+03  0.00000000000E+00 0. -1.
      -14    1    6    6    0    0  0.20035958555E+02  0.18807194610E+02 -0.14766574290E+02  0.31196184391E+02  0.00000000000E+00 0.  1.
</event>
<event>
12   0  0.1523332E-01  0.1892500E+03  0.7957747E-01  0.1165064E+00
        2   -1    0    0  502    0  0.00000000000E+00  0.00000000000E+00  0.41787395012E+03  0.41787395012E+03  0.00000000000E+00 0. -1.
       -2   -1    0    0    0  501  0.00000000000E+00  0.00000000000E+00 -0.11955629880E+03  0.11955629880E+03  0.00000000000E+00 0.  1.
        6    2    1    2  502    0  0.63720428985E+02 -0.39921467738E+02  0.63336741191E+01  0.18962486985E+03  0.17396395944E+03 0.  0.
       24    2    3    3    0    0  0.41355285369E+02 -0.24562830000E+02 -0.63949071176E+02  0.11414082062E+03  0.81394416165E+02 0.  0.
       -6    2    1    2    0  501 -0.63720428985E+02  0.39921467738E+02  0.29198397719E+03  0.34780537907E+03  0.17337797471E+03 0.  0.
      -24    2    5    5    0    0 -0.93552332888E+02  0.72389728788E+02  0.24167929831E+03  0.28074733567E+03  0.80111618600E+02 0.  0.
        5    1    3    3  502    0  0.22365143616E+02 -0.15358637738E+02  0.70282745295E+02  0.75484049231E+02  0.47000000000E+01 0. -1.
      -13    1    4    4    0    0  0.41383504575E+02 -0.43230585461E+02 -0.14918768417E+02  0.61676961836E+02  0.00000000000E+00 0.  1.
       14    1    4    4    0    0 -0.28219206528E-01  0.18667755460E+02 -0.49030302759E+02  0.52463858788E+02  0.00000000000E+00 0. -1.
       -5    1    5    5    0  501  0.29831903903E+02 -0.32468261050E+02  0.50304678884E+02  0.67058043393E+02  0.47000000000E+01 0.  1.
        3    1    6    6  503    0 -0.56220791047E+02  0.10607765807E+02  0.16853731286E+03  0.17798350449E+03  0.00000000000E+00 0. -1.
       -4    1    6    6    0  503 -0.37331541841E+02  0.61781962981E+02  0.73141985444E+02  0.10276383119E+03  0.00000000000E+00 0.  1.
</event>
<event>
12   0  0.1523332E-01  0.1750313E+03  0.7957747E-01  0.1178145E+00
       21   -1    0    0  504  503  0.00000000000E+00  0.00000000000E+00  0.20386092990E+03  0.20386092990E+03  0.00000000000E+00 0. -1.
       21   -1    0    0  501  504  0.00000000000E+00  0.00000000000E+00 -0.29055270124E+03  0.29055270124E+03  0.00000000000E+00 0. -1.
        6    2    1    2  501    0 -0.85699978506E+00  0.13365911351E+02 -0.21556416349E+03  0.27705665840E+03  0.17353126908E+03 0.  0.
       24    2    3    3    0    0 -0.15139814977E+02  0.71697411034E+02 -0.16374646938E+03  0.19759769988E+03  0.82838469442E+02 0.  0.
       -6    2    1    2    0  503  0.85699978506E+00 -0.13365911351E+02  0.12887239215E+03  0.21735697274E+03  0.17451813117E+03 0.  0.
      -24    2    5    5    0    0 -0.52352982037E+02 -0.40498864531E+02  0.11616457961E+03  0.15611092950E+03  0.80594168502E+02 0.  0.
        5    1    3    3  501    0  0.14282815192E+02 -0.58331499683E+02 -0.51817694114E+02  0.79458958515E+02  0.47000000000E+01 0. -1.
      -11    1    4    4    0    0 -0.45825902114E+02  0.23663121725E+02 -0.96723180637E+02  0.10961446212E+03  0.00000000000E+00 0.  1.
       12    1    4    4    0    0  0.30686087136E+02  0.48034289309E+02 -0.67023288739E+02  0.87983237758E+02  0.00000000000E+00 0. -1.
       -5    1    5    5    0  503  0.53209981822E+02  0.27132953180E+02  0.12707812540E+02  0.61246043246E+02  0.47000000000E+01 0.  1.
        1    1    6    6  502    0 -0.32734176741E+02 -0.65073870628E+02  0.80797235470E+02  0.10878569862E+03  0.00000000000E+00 0. -1.
       -2    1    6    6    0  502 -0.19618805296E+02  0.24575006096E+02  0.35367344138E+02  0.47325230874E+02  0.00000000000E+00 0.  1.
</event>
<event>
12   0  0.1523332E-01  0.2550693E+03  0.7957747E-01  0.1117642E+00
       21   -1    0    0  501  503  0.00000000000E+00  0.00000000000E+00  0.30792643333E+03  0.30792643333E+03  0.00000000000E+00 0. -1.
       21   -1    0    0  503  504  0.00000000000E+00  0.00000000000E+00 -0.35369511803E+03  0.35369511803E+03  0.00000000000E+00 0. -1.
        6    2    1    2  501    0  0.51976068152E+02  0.17964099252E+03  0.18792947943E+03  0.31682458283E+03  0.17345872475E+03 0.  0.
       24    2    3    3    0    0  0.39646533166E+02  0.20214914266E+03  0.13812789838E+03  0.26060250771E+03  0.79988919522E+02 0.  0.
       -6    2    1    2    0  504 -0.51976068152E+02 -0.17964099252E+03 -0.23369816413E+03  0.34479696853E+03  0.17116576684E+03 0.  0.
      -24    2    5    5    0    0  0.14417556874E+02 -0.15738921295E+03 -0.19811445517E+03  0.26611059435E+03  0.81155904164E+02 0.  0.
        5    1    3    3  501    0  0.12329534986E+02 -0.22508150135E+02  0.49801581047E+02  0.56222075115E+02  0.47000000000E+01 0. -1.
      -13    1    4    4    0    0 -0.20124433612E+02  0.45585709011E+02  0.52595802288E+02  0.72452523162E+02  0.00000000000E+00 0.  1.
       14    1    4    4    0    0  0.59770966778E+02  0.15656343365E+03  0.85532096091E+02  0.18814998455E+03  0.00000000000E+00 0. -1.
       -5    1    5    5    0  504 -0.66393625027E+02 -0.22251779573E+02 -0.35583708959E+02  0.78686374180E+02  0.47000000000E+01 0.  1.
        1    1    6    6  502    0 -0.15836573264E+02 -0.98789352501E+02 -0.70281667685E+02  0.12226874512E+03  0.00000000000E+00 0. -1.
       -2    1    6    6    0  502  0.30254130138E+02 -0.58599860447E+02 -0.12783278748E+03  0.14384184923E+03  0.00000000000E+00 0.  1.
</event>
<event>
12   0  0.1523332E-01  0.1647840E+03  0.7957747E-01  0.1188452E+00
        1   -1    0    0  502    0  0.00000000000E+00  0.00000000000E+00  0.21608427342E+03  0.21608427342E+03  0.00000000000E+00 0. -1.
       -1   -1    0    0    0  501  0.00000000000E+00  0.00000000000E+00 -0.14098714173E+03  0.14098714173E+03  0.00000000000E+00 0.  1.
        6    2    1    2  502    0  0.20865700355E+02 -0.19356579965E+02  0.93340037969E+02  0.18092226982E+03  0.15234976334E+03 0.  0.
       24    2    3    3    0    0  0.48760156836E+02 -0.11746437535E+01  0.11593687704E+02  0.92529740226E+02  0.77771502166E+02 0.  0.
       -6    2    1    2    0  501 -0.20865700355E+02  0.19356579965E+02 -0.18242906271E+02  0.17614914533E+03  0.17287470356E+03 0.  0.
      -24    2    5    5    0    0  0.36545929228E+02 -0.34118370257E+02  0.34587937335E+01  0.94609466056E+02  0.80245371712E+02 0.  0.
        5    1    3    3  502    0 -0.27894456481E+02 -0.18181936212E+02  0.81746350264E+02  0.88392529596E+02  0.47000000000E+01 0. -1.
        4    1    4    4  503    0  0.59163420545E+02  0.18354069412E+02  0.24841204402E+02  0.66740299900E+02  0.00000000000E+00 0. -1.
       -3    1    4    4    0  503 -0.10403263709E+02 -0.19528713166E+02 -0.13247516698E+02  0.25789440327E+02  0.00000000000E+00 0.  1.
       -5    1    5    5    0  501 -0.57411629583E+02  0.53474950222E+02 -0.21701700004E+02  0.81539679272E+02  0.47000000000E+01 0.  1.
       13    1    6    6    0    0  0.35080710912E+02 -0.90999702848E+01  0.37622702626E+02  0.52239194961E+02  0.00000000000E+00 0. -1.
      -14    1    6    6    0    0  0.14652183160E+01 -0.25018399972E+02 -0.34163908892E+02  0.42370271095E+02  0.00000000000E+00 0.  1.
</event>
<event>
12   0  0.1523332E-01  0.1760459E+03  0.7957747E-01  0.1177167E+00
        1   -1    0    0  502    0  0.00000000000E+00  0.00000000000E+00  0.24652161724E+03  0.24652161724E+03  0.00000000000E+00 0. -1.
       -1   -1    0    0    0  501  0.00000000000E+00  0.00000000000E+00 -0.12677599579E+03  0.12677599579E+03  0.00000000000E+00 0.  1.
        6    2    1    2  502    0  0.21455769859E+02  0.25005950701E+02  0.43031245721E+02  0.18180460239E+03  0.17353840414E+03 0.  0.
       24    2    3    3    0    0  0.73467463128E+02 -0.42942918686E+01  0.10165465961E+02  0.11349669706E+03  0.85803580723E+02 0.  0.
       -6    2    1    2    0  501 -0.21455769859E+02 -0.25005950701E+02  0.76714375727E+02  0.19149301064E+03  0.17233348499E+03 0.  0.
      -24    2    5    5    0    0 -0.15773169423E+02 -0.74091585954E+02  0.14465515620E+02  0.11187704415E+03  0.81048540281E+02 0.  0.
        5    1    3    3  502    0 -0.52011693269E+02  0.29300242570E+02  0.32865779761E+02  0.68307905331E+02  0.47000000000E+01 0. -1.
        4    1    4    4  503    0  0.15626769782E+02  0.37628786443E+02  0.10437627427E+02  0.42060261166E+02  0.00000000000E+00 0. -1.
       -3    1    4    4    0  503  0.57840693346E+02 -0.41923078312E+02 -0.27216146692E+00  0.71436435897E+02  0.00000000000E+00 0.  1.
       -5    1    5    5    0  501 -0.56826004364E+01  0.49085635253E+02  0.62248860107E+02  0.79615966492E+02  0.47000000000E+01 0.  1.
       13    1    6    6    0    0  0.21993396418E+01 -0.78311481959E+02  0.33640278384E+02  0.85259566215E+02  0.00000000000E+00 0. -1.
      -14    1    6    6    0    0 -0.17972509064E+02  0.42198960042E+01 -0.19174762763E+02  0.26617477930E+02  0.00000000000E+00 0.  1.
</event>
<event>
12   0  0.1523332E-01  0.2016414E+03  0.7957747E-01  0.1154653E+00
       21   -1    0    0  504  503  0.00000000000E+00  0.00000000000E+00  0.89425757245E+02  0.89425757245E+02  0.00000000000E+00 0. -1.
       21   -1    0    0  501  504  0.00000000000E+00  0.00000000000E+00 -0.61596740552E+03  0.61596740552E+03  0.00000000000E+00 0. -1.
        6    2    1    2  501    0  0.80362579743E+02 -0.60086737492E+02 -0.44506337370E+03  0.48791218513E+03  0.17294026002E+03 0.  0.
       24    2    3    3    0    0  0.84248815923E+02 -0.10342594059E+03 -0.36244858699E+03  0.39442056871E+03  0.80023862932E+02 0.  0.
       -6    2    1    2    0  503 -0.80362579743E+02  0.60086737492E+02 -0.81478274572E+02  0.21748097764E+03  0.17490199016E+03 0.  0.
      -24    2    5    5    0    0 -0.61428699756E+02  0.82132061785E+02  0.74057094028E+00  0.13015104754E+03  0.80122319005E+02 0.  0.
        5    1    3    3  501    0 -0.38862361800E+01  0.43339203094E+02 -0.82614786714E+02  0.93491616417E+02  0.47000000000E+01 0. -1.
      -11    1    4    4    0    0 -0.86942962832E+00 -0.30012500408E+02 -0.26087824516E+02  0.39775377768E+02  0.00000000000E+00 0.  1.
       12    1    4    4    0    0  0.85118245552E+02 -0.73413440177E+02 -0.33636076247E+03  0.35464519094E+03  0.00000000000E+00 0. -1.
       -5    1    5    5    0  503 -0.18933879988E+02 -0.22045324293E+02 -0.82218845512E+02  0.87329930104E+02  0.47000000000E+01 0.  1.
        1    1    6    6  502    0  0.98968091086E+01  0.48796248205E+02 -0.97146931291E+01  0.50728650012E+02  0.00000000000E+00 0. -1.
       -2    1    6    6    0  502 -0.71325508864E+02  0.33335813580E+02  0.10455264069E+02  0.79422397524E+02  0.00000000000E+00 0.  1.
</event>
<event>
12   0  0.1523332E-01  0.2025387E+03  0.7957747E-01  0.1153931E+00
        1   -1    0    0  502    0  0.00000000000E+00  0.00000000000E+00  0.14303787072E+04  0.14303787072E+04  0.00000000000E+00 0.  1.
       -1   -1    0    0    0  501  0.00000000000E+00  0.00000000000E+00 -0.29511648988E+02  0.29511648988E+02  0.00000000000E+00 0. -1.
        6    2    1    2  502    0  0.56582305132E+02  0.85275478260E+02  0.57208423553E+03  0.60629731359E+03  0.17275009546E+03 0.  0.
       24    2    3    3    0    0  0.71452446376E+02 -0.57494634374E+01  0.33107063835E+03  0.34819596695E+03  0.80586322670E+02 0.  0.
       -6    2    1    2    0  501 -0.56582305132E+02 -0.85275478260E+02  0.82878282267E+03  0.85359304259E+03  0.17682378446E+03 0.  0.
      -24    2    5    5    0    0  0.31812308266E+00 -0.91773733301E+02  0.33598683626E+03  0.35745812114E+03  0.80415389735E+02 0.  0.
        5    1    3    3  502    0 -0.14870141244E+02  0.91024941697E+02  0.24101359718E+03  0.25810134664E+03  0.47000000000E+01 0. -1.
        2    1    4    4  503    0 -0.12428992693E+02 -0.17858813041E+02  0.92314140303E+02  0.94843647982E+02  0.00000000000E+00 0. -1.
       -1    1    4    4    0  503  0.83881439069E+02  0.12109349604E+02  0.23875649805E+03  0.25335231897E+03  0.00000000000E+00 0.  1.
       -5    1    5    5    0  501 -0.56900428214E+02  0.64982550410E+01  0.49279598642E+03  0.49613492145E+03  0.47000000000E+01 0.  1.
       13    1    6    6    0    0 -0.31836650003E+02 -0.82637909935E+02  0.24770646569E+03  0.26306099975E+03  0.00000000000E+00 0. -1.
      -14    1    6    6    0    0  0.32154773086E+02 -0.91358233656E+01  0.88280370566E+02  0.94397121397E+02  0.00000000000E+00 0.  1.
</event>
<event>
12   0  0.1523332E-01  0.2126649E+03  0.7957747E-01  0.1146059E+00
       21   -1    0    0  501  503  0.00000000000E+00  0.00000000000E+00  0.60987612547E+02  0.60987612547E+02  0.00000000000E+00 0. -1.
       21   -1    0    0  503  504  0.00000000000E+00  0.00000000000E+00 -0.84192927471E+03  0.84192927471E+03  0.00000000000E+00 0. -1.
        6    2    1    2  501    0 -0.11076167354E+03 -0.53728994325E+02 -0.23405598118E+03  0.31624131853E+03  0.17341111863E+03 0.  0.
       24    2    3    3    0    0 -0.81117966830E+02 -0.80811171953E+02 -0.23715049239E+03  0.27569677892E+03  0.81595268328E+02 0.  0.
       -6    2    1    2    0  504  0.11076167354E+03  0.53728994325E+02 -0.54688568099E+03  0.58667556873E+03  0.17305872331E+03 0.  0.
      -24    2    5    5    0    0  0.92921965852E+02  0.10515352464E+03 -0.44229074098E+03  0.46867163251E+03  0.65880528790E+02 0.  0.
        5    1    3    3  501    0 -0.29643706709E+02  0.27082177628E+02  0.30945112090E+01  0.40544539610E+02  0.47000000000E+01 0. -1.
      -11    1    4    4    0    0 -0.32001172181E+02 -0.16888479108E+02 -0.16025733612E+03  0.16429153821E+03  0.00000000000E+00 0.  1.
       12    1    4    4    0    0 -0.49116794649E+02 -0.63922692845E+02 -0.76893156267E+02  0.11140524071E+03  0.00000000000E+00 0. -1.
       -5    1    5    5    0  504  0.17839707688E+02 -0.51424530319E+02 -0.10459494000E+03  0.11800393622E+03  0.47000000000E+01 0.  1.
        3    1    6    6  502    0  0.46765446971E+02  0.93800489058E+01 -0.16279439578E+03  0.16963787208E+03  0.00000000000E+00 0. -1.
       -4    1    6    6    0  502  0.46156518880E+02  0.95773475739E+02 -0.27949634521E+03  0.29903376043E+03  0.00000000000E+00 0.  1.
</event>
<event>
12   0  0.1523332E-01  0.2456221E+03  0.7957747E-01  0.1123424E+00
       21   -1    0    0  501  503  0.00000000000E+00  0.00000000000E+00  0.37891373954E+03  0.37891373954E+03  0.00000000000E+00 0. -1.
       21   -1    0    0  503  504  0.00000000000E+00  0.00000000000E+00 -0.16131990287E+03  0.16131990287E+03  0.00000000000E+00 0.  1.
        6    2    1    2  501    0 -0.84081512268E+02  0.15261140286E+03  0.15140042163E+03  0.28584856376E+03  0.16860418958E+03 0.  0.
       24    2    3    3    0    0 -0.45337367557E+01  0.12959763851E+03  0.13039268128E+03  0.20028632271E+03  0.79348957497E+02 0.  0.
       -6    2    1    2    0  504  0.84081512268E+02 -0.15261140286E+03  0.66193415037E+02  0.25438507865E+03  0.17311920477E+03 0.  0.
      -24    2    5    5    0    0  0.58475514085E+02 -0.83880576583E+02  0.10886944513E+03  0.16939727266E+03  0.79922105997E+02 0.  0.
        5    1    3    3  501    0 -0.79547775512E+02  0.23013764342E+02  0.21007740345E+02  0.85562241044E+02  0.47000000000E+01 0. -1.
        4    1    4    4  502    0 -0.32170874983E+02  0.43888872301E+02  0.80983096569E+02  0.97567721296E+02  0.00000000000E+00 0. -1.
       -3    1    4    4    0  502  0.27637138228E+02  0.85708766213E+02  0.49409584714E+02  0.10271860142E+03  0.00000000000E+00 0.  1.
       -5    1    5    5    0  504  0.25605998183E+02 -0.68730826273E+02 -0.42676030091E+02  0.84987805992E+02  0.47000000000E+01 0.  1.
       13    1    6    6    0    0  0.78321442236E+02 -0.73003993230E+02  0.87573406747E+02  0.13832184539E+03  0.00000000000E+00 0. -1.
      -14    1    6    6    0    0 -0.19845928151E+02 -0.10876583353E+02  0.21296038381E+02  0.31075427275E+02  0.00000000000E+00 0.  1.
</event>
<event>
12   0  0.1523332E-01  0.1806099E+03  0.7957747E-01  0.1172855E+00
        1   -1    0    0  502    0  0.00000000000E+00  0.00000000000E+00  0.77702576992E+03  0.77702576992E+03  0.00000000000E+00 0. -1.
       -1   -1    0    0    0  501  0.00000000000E+00  0.00000000000E+00 -0.12490245819E+03  0.12490245819E+03  0.00000000000E+00 0.  1.
        6    2    1    2  502    0  0.45638254217E+02  0.19522625075E+02  0.69334762917E+03  0.71641961423E+03  0.17338438695E+03 0.  0.
       24    2    3    3    0    0  0.70867095360E+02 -0.15220811992E+02  0.27577972609E+03  0.29662365841E+03  0.81714864496E+02 0.  0.
       -6    2    1    2    0  501 -0.45638254217E+02 -0.19522625075E+02 -0.41224317445E+02  0.18550861389E+03  0.17392532403E+03 0.  0.
      -24    2    5    5    0    0  0.15902137459E+02 -0.44892878254E+02 -0.64912620563E+02  0.11469833738E+03  0.81693401181E+02 0.  0.
        5    1    3    3  502    0 -0.25228841143E+02  0.34743437068E+02  0.41756790308E+03  0.41979595583E+03  0.47000000000E+01 0. -1.
        4    1    4    4  503    0  0.37962064115E+02 -0.48516694663E+02  0.13851333751E+03  0.15159463263E+03  0.00000000000E+00 0. -1.
       -3    1    4    4    0  503  0.32905031245E+02  0.33295882670E+02  0.13726638858E+03  0.14502902577E+03  0.00000000000E+00 0.  1.
       -5    1    5    5    0  501 -0.61540391675E+02  0.25370253178E+02  0.23688303118E+02  0.70810276503E+02  0.47000000000E+01 0.  1.
       13    1    6    6    0    0 -0.12271705844E+02 -0.31135009404E+01  0.15368985946E+02  0.19912166669E+02  0.00000000000E+00 0. -1.
      -14    1    6    6    0    0  0.28173843303E+02 -0.41779377313E+02 -0.80281606509E+02  0.94786170715E+02  0.00000000000E+00 0.  1.
</event>
<event>
12   0  0.1523332E-01  0.2120507E+03  0.7957747E-01  0.1146523E+00
       21   -1    0    0  501  503  0.00000000000E+00  0.00000000000E+00  0.72079443185E+03  0.72079443185E+03  0.00000000000E+00 0. -1.
       21   -1    0    0  503  504  0.00000000000E+00  0.00000000000E+00 -0.61665918308E+02  0.61665918308E+02  0.00000000000E+00 0.  1.
        6    2    1    2  501    0  0.45521838640E+02  0.10505301602E+03  0.37476809211E+03  0.43060030855E+03  0.17848565458E+03 0.  0.
       24    2    3    3    0    0  0.66238316918E+02 -0.51374543527E-01  0.20391439371E+03  0.22888471262E+03  0.80122496454E+02 0.  0.
       -6    2    1    2    0  504 -0.45521838640E+02 -0.10505301602E+03  0.28436042143E+03  0.35186004161E+03  0.17273177367E+03 0.  0.
      -24    2    5    5    0    0 -0.73540325686E+02 -0.13353589791E+02  0.99236092977E+02  0.14332484704E+03  0.71468257063E+02 0.  0.
        5    1    3    3  501    0 -0.20716478278E+02  0.10510439056E+03  0.17085369839E+03  0.20171559593E+03  0.47000000000E+01 0. -1.
      -11    1    4    4    0    0  0.81590641017E+02  0.13514243598E+02  0.15140049020E+03  0.17251601640E+03  0.00000000000E+00 0.  1.
       12    1    4    4    0    0 -0.15352324099E+02 -0.13565618142E+02  0.52513903514E+02  0.56368696216E+02  0.00000000000E+00 0. -1.
       -5    1    5    5    0  504  0.28018487046E+02 -0.91699426228E+02  0.18512432845E+03  0.20853519456E+03  0.47000000000E+01 0.  1.
        1    1    6    6  502    0 -0.50088960149E+02  0.60561030203E+00  0.10417243414E+03  0.11559051314E+03  0.00000000000E+00 0. -1.
       -2    1    6    6    0  502 -0.23451365537E+02 -0.13959200093E+02 -0.49363411666E+01  0.27734333900E+02  0.00000000000E+00 0.  1.
</event>
<event>
12   0  0.1523332E-01  0.1869272E+03  0.7957747E-01  0.1167113E+00
       21   -1    0    0  504  503  0.00000000000E+00  0.00000000000E+00  0.39208115686E+03  0.39208115686E+03  0.00000000000E+00 0. -1.
       21   -1    0    0  501  504  0.00000000000E+00  0.00000000000E+00 -0.10176184989E+03  0.10176184989E+03  0.00000000000E+00 0. -1.
        6    2    1    2  501    0  0.67853372109E+02 -0.95541382242E+01  0.23428643840E+03  0.29869827598E+03  0.17214866596E+03 0.  0.
       24    2    3    3    0    0  0.12121294822E+02 -0.54746891205E+02  0.84106171289E+02  0.13219106295E+03  0.85184982193E+02 0.  0.
       -6    2    1    2    0  503 -0.67853372109E+02  0.95541382242E+01  0.56032868580E+02  0.19514473077E+03  0.17391498475E+03 0.  0.
      -24    2    5    5    0    0 -0.67838397593E+02  0.54927778184E+02  0.67437219783E+01  0.12798613191E+03  0.93358787332E+02 0.  0.
        5    1    3    3  501    0  0.55732077287E+02  0.45192752981E+02  0.15018026711E+03  0.16650721302E+03  0.47000000000E+01 0. -1.
      -11    1    4    4    0    0  0.44981567064E+02 -0.38322161224E+02  0.28652080742E+02  0.65672453489E+02  0.00000000000E+00 0.  1.
       12    1    4    4    0    0 -0.32860272242E+02 -0.16424729981E+02  0.55454090548E+02  0.66518609466E+02  0.00000000000E+00 0. -1.
       -5    1    5    5    0  503 -0.14974515910E-01 -0.45373639959E+02  0.49289146602E+02  0.67158598855E+02  0.47000000000E+01 0.  1.
        3    1    6    6  502    0 -0.38851511745E+02 -0.19649828454E+02 -0.13256592589E+02  0.45511459767E+02  0.00000000000E+00 0. -1.
       -4    1    6    6    0  502 -0.28986885849E+02  0.74577606637E+02  0.20000314567E+02  0.82474672147E+02  0.00000000000E+00 0.  1.
</event>
<event>
12   0  0.1523332E-01  0.2119355E+03  0.7957747E-01  0.1146610E+00
       21   -1    0    0  501  503  0.00000000000E+00  0.00000000000E+00  0.40510696006E+03  0.40510696006E+03  0.00000000000E+00 0.  1.
       21   -1    0    0  503  504  0.00000000000E+00  0.00000000000E+00 -0.13741928941E+03  0.13741928941E+03  0.00000000000E+00 0. -1.
        6    2    1    2  501    0 -0.11111380944E+03  0.42471190453E+02  0.13173714048E+02  0.21234451873E+03  0.17540401143E+03 0.  0.
       24    2    3    3    0    0 -0.30227957233E+02 -0.40240942263E+02  0.16662238397E+02  0.96508091871E+02  0.80641916989E+02 0.  0.
       -6    2    1    2    0  504  0.11111380944E+03 -0.42471190453E+02  0.25451395660E+03  0.33018173073E+03  0.17347201658E+03 0.  0.
      -24    2    5    5    0    0  0.11133474400E+03 -0.91318283499E+02  0.19378177547E+03  0.25210116250E+03  0.72589017803E+02 0.  0.
        5    1    3    3  501    0 -0.80885852211E+02  0.82712132716E+02 -0.34885243484E+01  0.11583642686E+03  0.47000000000E+01 0. -1.
      -13    1    4    4    0    0  0.27609226534E+02 -0.15431655771E+02  0.10250338637E+02  0.33248681655E+02  0.00000000000E+00 0.  1.
       14    1    4    4    0    0 -0.57837183767E+02 -0.24809286492E+02  0.64118997599E+01  0.63259410216E+02  0.00000000000E+00 0. -1.
       -5    1    5    5    0  504 -0.22093455345E+00  0.48847093045E+02  0.60732181126E+02  0.78080568232E+02  0.47000000000E+01 0.  1.
        3    1    6    6  502    0  0.21381449625E+02 -0.24142516308E+02  0.52504162858E+01  0.32674062388E+02  0.00000000000E+00 0. -1.
       -4    1    6    6    0  502  0.89953294372E+02 -0.67175767191E+02  0.18853135919E+03  0.21942710011E+03  0.00000000000E+00 0.  1.
</event>
<event>
12   0  0.1523332E-01  0.1740475E+03  0.7957747E-01  0.1179100E+00
       21   -1    0    0  504  503  0.00000000000E+00  0.00000000000E+00  0.25060918519E+03  0.25060918519E+03  0.00000000000E+00 0.  1.
       21   -1    0    0  501  504  0.00000000000E+00  0.00000000000E+00 -0.12044034701E+03  0.12044034701E+03  0.00000000000E+00 0.  1.
        6    2    1    2  501    0  0.10700204777E+02 -0.17714246814E+02  0.44594380704E+02  0.17710234646E+03  0.17014198015E+03 0.  0.
       24    2    3    3    0    0  0.61596453836E+02 -0.31065890013E+02 -0.33789552646E+01  0.10574251526E+03  0.80067780959E+02 0.  0.
       -6    2    1    2    0  503 -0.10700204777E+02  0.17714246814E+02  0.85574457470E+02  0.19394718574E+03  0.17281271413E+03 0.  0.
      -24    2    5    5    0    0 -0.29563611821E+02 -0.78271183248E+01 -0.14751833670E+02  0.88611322180E+02  0.81847900992E+02 0.  0.
        5    1    3    3  501    0 -0.50896249059E+02  0.13351643200E+02  0.47973335969E+02  0.71359831197E+02  0.47000000000E+01 0. -1.
      -13    1    4    4    0    0  0.58041738529E+02  0.10418001393E+02 -0.17933615540E+02  0.61635969456E+02  0.00000000000E+00 0.  1.
       14    1    4    4    0    0  0.35547153069E+01 -0.41483891407E+02  0.14554660275E+02  0.44106545805E+02  0.00000000000E+00 0. -1.
       -5    1    5    5    0  503  0.18863407044E+02  0.25541365139E+02  0.10032629114E+03  0.10533586356E+03  0.47000000000E+01 0.  1.
        3    1    6    6  502    0 -0.10290347433E+02  0.32769175635E+02 -0.25045192800E+02  0.42508490969E+02  0.00000000000E+00 0. -1.
       -4    1    6    6    0  502 -0.19273264388E+02 -0.40596293960E+02  0.10293359130E+02  0.46102831211E+02  0.00000000000E+00 0.  1.
</event>
<event>
12   0  0.1523332E-01  0.1921236E+03  0.7957747E-01  0.1162573E+00
       -2   -1    0    0    0  501  0.00000000000E+00  0.00000000000E+00  0.12497519289E+03  0.12497519289E+03  0.00000000000E+00 0. -1.
        2   -1    0    0  502    0  0.00000000000E+00  0.00000000000E+00 -0.30330927908E+03  0.30330927908E+03  0.00000000000E+00 0.  1.
        6    2    1    2  502    0 -0.32421208761E+02 -0.76115474923E+02 -0.54560161527E+02  0.19989298868E+03  0.17359635767E+03 0.  0.
       24    2    3    3    0    0 -0.85705586995E+02 -0.64984775690E+02 -0.23587967653E+02  0.13708785973E+03  0.81659171890E+02 0.  0.
       -6    2    1    2    0  501  0.32421208761E+02  0.76115474923E+02 -0.12377392466E+03  0.22839148329E+03  0.17319926361E+03 0.  0.
      -24    2    5    5    0    0  0.29147550746E+02  0.11196853372E+03 -0.56004002873E+02  0.15150838397E+03  0.80198564932E+02 0.  0.
        5    1    3    3  502    0  0.53284378233E+02 -0.11130699233E+02 -0.30972193874E+02  0.62805128951E+02  0.47000000000E+01 0. -1.
        2    1    4    4  503    0 -0.43671054518E+02  0.13228379342E+02 -0.14256567287E+02  0.47805865054E+02  0.00000000000E+00 0. -1.
       -1    1    4    4    0  503 -0.42034532476E+02 -0.78213155032E+02 -0.93314003652E+01  0.89281994676E+02  0.00000000000E+00 0.  1.
       -5    1    5    5    0  501  0.32736580149E+01 -0.35853058799E+02 -0.67769921788E+02  0.76883099321E+02  0.47000000000E+01 0.  1.
       11    1    6    6    0    0 -0.79134800613E+01  0.25091363853E+02  0.17694095448E+02  0.31706162183E+02  0.00000000000E+00 0. -1.
      -12    1    6    6    0    0  0.37061030808E+02  0.86877169869E+02 -0.73698098321E+02  0.11980222179E+03  0.00000000000E+00 0.  1.
</event>
<event>
12   0  0.1523332E-01  0.2007603E+03  0.7957747E-01  0.1155366E+00
       21   -1    0    0  501  503  0.00000000000E+00  0.00000000000E+00  0.26756231631E+03  0.26756231631E+03  0.00000000000E+00 0. -1.
       21   -1    0    0  503  504  0.00000000000E+00  0.00000000000E+00 -0.14864785081E+03  0.14864785081E+03  0.00000000000E+00 0. -1.
        6    2    1    2  501    0  0.42146568763E+02  0.86936105639E+02  0.55976105680E+02  0.20841792335E+03  0.17598433636E+03 0.  0.
       24    2    3    3    0    0  0.57851605473E+02  0.10224983512E+02  0.79219955719E+02  0.12660343197E+03  0.79380533241E+02 0.  0.
       -6    2    1    2    0  504 -0.42146568763E+02 -0.86936105639E+02  0.62938359818E+02  0.20779224377E+03  0.17286457043E+03 0.  0.
      -24    2    5    5    0    0  0.40294586070E+02 -0.67388780916E+02  0.24684890678E+02  0.11471131223E+03  0.79902689982E+02 0.  0.
        5    1    3    3  501    0 -0.15705036710E+02  0.76711122128E+02 -0.23243850040E+02  0.81814491386E+02  0.47000000000E+01 0. -1.
      -13    1    4    4    0    0  0.35448467177E+02 -0.32659415678E+02  0.52740752265E+02  0.71448010519E+02  0.00000000000E+00 0.  1.
       14    1    4    4    0    0  0.22403138296E+02  0.42884399189E+02  0.26479203454E+02  0.55155421446E+02  0.00000000000E+00 0. -1.
       -5    1    5    5    0  504 -0.82441154833E+02 -0.19547324723E+02  0.38253469140E+02  0.93080931534E+02  0.47000000000E+01 0.  1.
        1    1    6    6  502    0 -0.14624349736E+02 -0.51445730040E+02  0.30550750431E+01  0.53571151080E+02  0.00000000000E+00 0. -1.
       -2    1    6    6    0  502  0.54918935806E+02 -0.15943050876E+02  0.21629815635E+02  0.61140161152E+02  0.00000000000E+00 0.  1.
</event>
<event>
12   0  0.1523332E-01  0.2055487E+03  0.7957747E-01  0.1151539E+00
       21   -1    0    0  501  503  0.00000000000E+00  0.00000000000E+00  0.14883704932E+03  0.14883704932E+03  0.00000000000E+00 0.  1.
       21   -1    0    0  503  504  0.00000000000E+00  0.00000000000E+00 -0.28594543206E+03  0.28594543206E+03  0.00000000000E+00 0.  1.
        6    2    1    2  501    0  0.57592276856E+02  0.40295667085E+02 -0.15144712962E+03  0.25531648474E+03  0.19315709454E+03 0.  0.
       24    2    3    3    0    0  0.21792209548E+02 -0.41950512875E+02 -0.19491201897E+02  0.95690246926E+02  0.80882448516E+02 0.  0.
       -6    2    1    2    0  504 -0.57592276856E+02 -0.40295667085E+02  0.14338746873E+02  0.17946599664E+03  0.16450481194E+03 0.  0.
      -24    2    5    5    0    0 -0.30889234115E+01 -0.30566389564E+02 -0.40656917808E+02  0.10128743493E+03  0.87534643945E+02 0.  0.
        5    1    3    3  501    0  0.35800067308E+02  0.82246179959E+02 -0.13195592772E+03  0.15962623781E+03  0.47000000000E+01 0. -1.
        2    1    4    4  502    0 -0.26703909296E+02 -0.35764708850E+02 -0.65038825535E+01  0.45105583458E+02  0.00000000000E+00 0. -1.
       -1    1    4    4    0  502  0.48496118844E+02 -0.61858040247E+01 -0.12987319343E+02  0.50584663468E+02  0.00000000000E+00 0.  1.
       -5    1    5    5    0  504 -0.54503353445E+02 -0.97292775207E+01  0.54995664680E+02  0.78178561712E+02  0.47000000000E+01 0.  1.
       11    1    6    6    0    0 -0.32013870677E+02  0.17603455678E+02 -0.14435209922E+02  0.39282882443E+02  0.00000000000E+00 0. -1.
      -12    1    6    6    0    0  0.28924947265E+02 -0.48169845242E+02 -0.26221707886E+02  0.62004552489E+02  0.00000000000E+00 0.  1.
</event>
<event>
12   0  0.1523332E-01  0.2151196E+03  0.7957747E-01  0.1144222E+00
       21   -1    0    0  501  503  0.00000000000E+00  0.00000000000E+00  0.66158564407E+03  0.66158564407E+03  0.00000000000E+00 0. -1.
       21   -1    0    0  503  504  0.00000000000E+00  0.00000000000E+00 -0.74365895734E+02  0.74365895734E+02  0.00000000000E+00 0. -1.
        6    2    1    2  501    0  0.66377362425E+02  0.10249857605E+03  0.39667348318E+03  0.45124970998E+03  0.17710035620E+03 0.  0.
       24    2    3    3    0    0 -0.31981795051E+02  0.68894334248E+02  0.20656638845E+03  0.23453199867E+03  0.81032839392E+02 0.  0.
       -6    2    1    2    0  504 -0.66377362425E+02 -0.10249857605E+03  0.19054626516E+03  0.28470182982E+03  0.17272909542E+03 0.  0.
      -24    2    5    5    0    0 -0.10005781051E+03 -0.12370631827E+03  0.16772178040E+03  0.23858038126E+03  0.58950691890E+02 0.  0.
        5    1    3    3  501    0  0.98359157476E+02  0.33604241807E+02  0.19010709473E+03  0.21671771131E+03  0.47000000000E+01 0. -1.
      -11    1    4    4    0    0 -0.32090186974E+02 -0.50737520561E+01  0.35299999299E+02  0.47975129082E+02  0.00000000000E+00 0.  1.
       12    1    4    4    0    0  0.10839192278E+00  0.73968086304E+02  0.17126638915E+03  0.18655686959E+03  0.00000000000E+00 0. -1.
       -5    1    5    5    0  504  0.33680448088E+02  0.21207742220E+02  0.22824484755E+02  0.46121448566E+02  0.47000000000E+01 0.  1.
        1    1    6    6  502    0 -0.31097740679E+01 -0.41008040630E+02  0.53282103605E+02  0.67307597310E+02  0.00000000000E+00 0. -1.
       -2    1    6    6    0  502 -0.96948036445E+02 -0.82698277645E+02  0.11443967680E+03  0.17127278395E+03  0.00000000000E+00 0.  1.
</event>
<event>
12   0  0.1523332E-01  0.1950351E+03  0.7957747E-01  0.1160098E+00
       21   -1    0    0  504  503  0.00000000000E+00  0.00000000000E+00  0.43553950198E+02  0.43553950198E+02  0.00000000000E+00 0.  1.
       21   -1    0    0  501  504  0.00000000000E+00  0.00000000000E+00 -0.86685944871E+03  0.86685944871E+03  0.00000000000E+00 0.  1.
        6    2    1    2  501    0  0.84002634743E+02 -0.71710800939E+01 -0.43607116454E+03  0.47769943434E+03  0.17587160657E+03 0.  0.
       24    2    3    3    0    0  0.12311374683E+03 -0.19298185496E+02 -0.28022359578E+03  0.31649366379E+03  0.78189263713E+02 0.  0.
       -6    2    1    2    0  503 -0.84002634743E+02  0.71710800939E+01 -0.38723433397E+03  0.43271396456E+03  0.17373277954E+03 0.  0.
      -24    2    5    5    0    0 -0.79465975578E+02 -0.54485666337E+02 -0.30305118604E+03  0.32816240766E+03  0.81037123124E+02 0.  0.
        5    1    3    3  501    0 -0.39111112091E+02  0.12127105403E+02 -0.15584756875E+03  0.16120577056E+03  0.47000000000E+01 0. -1.
        2    1    4    4  502    0  0.89887595199E+02  0.27236923081E+01 -0.11212316399E+03  0.14373170205E+03  0.00000000000E+00 0. -1.
       -1    1    4    4    0  502  0.33226151635E+02 -0.22021877805E+02 -0.16810043179E+03  0.17276196174E+03  0.00000000000E+00 0.  1.
       -5    1    5    5    0  503 -0.45366591648E+01  0.61656746430E+02 -0.84183147930E+02  0.10455155691E+03  0.47000000000E+01 0.  1.
       13    1    6    6    0    0 -0.28438795640E+02 -0.13321749758E+02 -0.19134529816E+02  0.36774506732E+02  0.00000000000E+00 0. -1.
      -14    1    6    6    0    0 -0.51027179938E+02 -0.41163916578E+02 -0.28391665623E+03  0.29138790092E+03  0.00000000000E+00 0.  1.
</event>
<event>
12   0  0.1523332E-01  0.1862715E+03  0.7957747E-01  0.1167697E+00
       21   -1    0    0  501  503  0.00000000000E+00  0.00000000000E+00  0.43583959058E+02  0.43583959058E+02  0.00000000000E+00 0.  1.
       21   -1    0    0  503  504  0.00000000000E+00  0.00000000000E+00 -0.90013360013E+03  0.90013360013E+03  0.00000000000E+00 0.  1.
        6    2    1    2  501    0 -0.59008226779E+02 -0.39298420049E+02 -0.25279928318E+03  0.31188564627E+03  0.16834144507E+03 0.  0.
       24    2    3    3    0    0 -0.67215978506E+02 -0.84793292281E+02 -0.20473425087E+03  0.24503141739E+03  0.80102383536E+02 0.  0.
       -6    2    1    2    0  504  0.59008226779E+02  0.39298420049E+02 -0.60375035789E+03  0.63183191292E+03  0.17225195175E+03 0.  0.
      -24    2    5    5    0    0  0.77895196273E+01 -0.38483698352E+02 -0.23390074415E+03  0.25040794842E+03  0.80330012230E+02 0.  0.
        5    1    3    3  501    0  0.82077517267E+01  0.45494872233E+02 -0.48065032313E+02  0.66854228880E+02  0.47000000000E+01 0. -1.
        2    1    4    4  502    0  0.47271707394E+01 -0.23364020796E+02 -0.10458124223E+03  0.10726350655E+03  0.00000000000E+00 0. -1.
       -1    1    4    4    0  502 -0.71943149245E+02 -0.61429271486E+02 -0.10015300864E+03  0.13776791084E+03  0.00000000000E+00 0.  1.
       -5    1    5    5    0  504  0.51218707152E+02  0.77782118401E+02 -0.36984961374E+03  0.38142396449E+03  0.47000000000E+01 0.  1.
       11    1    6    6    0    0 -0.42730898425E+01  0.13994080378E+02 -0.53175808159E+01  0.15568244865E+02  0.00000000000E+00 0. -1.
      -12    1    6    6    0    0  0.12062609470E+02 -0.52477778731E+02 -0.22858316333E+03  0.23483970356E+03  0.00000000000E+00 0.  1.
</event>
<event>
12   0  0.1523332E-01  0.2731873E+03  0.7957747E-01  0.1107280E+00
       21   -1    0    0  504  503  0.00000000000E+00  0.00000000000E+00  0.10455335573E+03  0.10455335573E+03  0.00000000000E+00 0.  1.
       21   -1    0    0  501  504  0.00000000000E+00  0.00000000000E+00 -0.71248315631E+03  0.71248315631E+03  0.00000000000E+00 0.  1.
        6    2    1    2  501    0  0.85860239485E+02 -0.19211962920E+03 -0.30639716025E+03  0.41050033508E+03  0.17421071335E+03 0.  0.
       24    2    3    3    0    0  0.12067004555E+03 -0.18517965860E+03 -0.28063751483E+03  0.36639211451E+03  0.81443237848E+02 0.  0.
       -6    2    1    2    0  503 -0.85860239485E+02  0.19211962920E+03 -0.30153264034E+03  0.40653617696E+03  0.17340068437E+03 0.  0.
      -24    2    5    5    0    0  0.40097486793E+01  0.36742742388E+02 -0.13771112893E+03  0.16347616517E+03  0.79962455859E+02 0.  0.
        5    1    3    3  501    0 -0.34809806066E+02 -0.69399706010E+01 -0.25759645413E+02  0.44108220573E+02  0.47000000000E+01 0. -1.
      -13    1    4    4    0    0  0.10825472821E+03 -0.93534541919E+02 -0.16915146904E+03  0.22154010064E+03  0.00000000000E+00 0.  1.
       14    1    4    4    0    0  0.12415317337E+02 -0.91645116681E+02 -0.11148604579E+03  0.14485201387E+03  0.00000000000E+00 0. -1.
       -5    1    5    5    0  503 -0.89869988164E+02  0.15537688681E+03 -0.16382151141E+03  0.24306001179E+03  0.47000000000E+01 0.  1.
        1    1    6    6  502    0  0.25178310163E+02  0.54472373617E+02 -0.86210068939E+02  0.10503981520E+03  0.00000000000E+00 0. -1.
       -2    1    6    6    0  502 -0.21168561484E+02 -0.17729631229E+02 -0.51501059987E+02  0.58436349977E+02  0.00000000000E+00 0.  1.
</event>
<event>
12   0  0.1523332E-01  0.1959290E+03  0.7957747E-01  0.1159347E+00
       21   -1    0    0  504  503  0.00000000000E+00  0.00000000000E+00  0.42137314050E+03  0.42137314050E+03  0.00000000000E+00 0.  1.
       21   -1    0    0  501  504  0.00000000000E+00  0.00000000000E+00 -0.10886890635E+03  0.10886890635E+03  0.00000000000E+00 0.  1.
        6    2    1    2  501    0  0.75769413697E+02  0.35050134378E+02  0.45561487728E+02  0.20115674141E+03  0.17725312262E+03 0.  0.
       24    2    3    3    0    0  0.11584860544E+03  0.32310977725E+02  0.60000921981E+01  0.14457901959E+03  0.80013705920E+02 0.  0.
       -6    2    1    2    0  503 -0.75769413697E+02 -0.35050134378E+02  0.26694274643E+03  0.32908530545E+03  0.17340470702E+03 0.  0.
      -24    2    5    5    0    0 -0.67442921963E+02 -0.56213647432E+02  0.27852462140E+03  0.30313430205E+03  0.81276801586E+02 0.  0.
        5    1    3    3  501    0 -0.40079191741E+02  0.27391566537E+01  0.39561395530E+02  0.56577721818E+02  0.47000000000E+01 0. -1.
        4    1    4    4  502    0  0.48097378995E+02  0.87329216853E+00 -0.34892775535E+02  0.59427487663E+02  0.00000000000E+00 0. -1.
       -3    1    4    4    0  502  0.67751226444E+02  0.31437685556E+02  0.40892867733E+02  0.85151531925E+02  0.00000000000E+00 0.  1.
       -5    1    5    5    0  503 -0.83264917341E+01  0.21163513053E+02 -0.11581874967E+02  0.25951003393E+02  0.47000000000E+01 0.  1.
       11    1    6    6    0    0  0.17852312911E+02 -0.15064948452E+01  0.33662826406E+02  0.38133456238E+02  0.00000000000E+00 0. -1.
      -12    1    6    6    0    0 -0.85295234874E+02 -0.54707152587E+02  0.24486179499E+03  0.26500084581E+03  0.00000000000E+00 0.  1.
</event>
<event>
12   0  0.1523332E-01  0.2316058E+03  0.7957747E-01  0.1132546E+00
       -2   -1    0    0    0  501  0.00000000000E+00  0.00000000000E+00  0.57998441601E+02  0.57998441601E+02  0.00000000000E+00 0.  1.
        2   -1    0    0  502    0  0.00000000000E+00  0.00000000000E+00 -0.92696580296E+03  0.92696580296E+03  0.00000000000E+00 0. -1.
        6    2    1    2  502    0  0.15223803872E+03  0.28765839048E+02 -0.41093132750E+03  0.47166402798E+03  0.17204216182E+03 0.  0.
       24    2    3    3    0    0  0.16277718365E+03 -0.18633662377E+02 -0.32820126355E+03  0.37562164259E+03  0.80820319826E+02 0.  0.
       -6    2    1    2    0  501 -0.15223803872E+03 -0.28765839048E+02 -0.45803603386E+03  0.51330021657E+03  0.17226784405E+03 0.  0.
      -24    2    5    5    0    0 -0.80385062057E+02 -0.24174282477E+02 -0.41101604306E+03  0.42717877800E+03  0.80631052250E+02 0.  0.
        5    1    3    3  502    0 -0.10539144926E+02  0.47399501425E+02 -0.82730063945E+02  0.96042385390E+02  0.47000000000E+01 0. -1.
      -13    1    4    4    0    0  0.16624640570E+03 -0.28647040101E+02 -0.28541210135E+03  0.33153972297E+03  0.00000000000E+00 0.  1.
       14    1    4    4    0    0 -0.34692220503E+01  0.10013377723E+02 -0.42789162208E+02  0.44081919621E+02  0.00000000000E+00 0. -1.
       -5    1    5    5    0  501 -0.71852976664E+02 -0.45915565714E+01 -0.47019990798E+02  0.86121438573E+02  0.47000000000E+01 0.  1.
        3    1    6    6  503    0 -0.78907743239E+02  0.90447192187E+01 -0.23527106091E+03  0.24831574857E+03  0.00000000000E+00 0. -1.
       -4    1    6    6    0  503 -0.14773188185E+01 -0.33219001695E+02 -0.17574498215E+03  0.17886302943E+03  0.00000000000E+00 0.  1.
</event>
<event>
12   0  0.1523332E-01  0.1883711E+03  0.7957747E-01  0.1165835E+00
       21   -1    0    0  504  503  0.00000000000E+00  0.00000000000E+00  0.33039204224E+02  0.33039204224E+02  0.00000000000E+00 0. -1.
       21   -1    0    0  501  504  0.00000000000E+00  0.00000000000E+00 -0.10792916740E+04  0.10792916740E+04  0.00000000000E+00 0. -1.
        6    2    1    2  501    0 -0.35338571691E+02  0.64335769147E+02 -0.56552737819E+03  0.59607457574E+03  0.17348134918E+03 0.  0.
       24    2    3    3    0    0 -0.31134940054E+02 -0.10375706434E+02 -0.44865347604E+03  0.45721826833E+03  0.81740831630E+02 0.  0.
       -6    2    1    2    0  503  0.35338571691E+02 -0.64335769147E+02 -0.48072509161E+03  0.51625630251E+03  0.17330911788E+03 0.  0.
      -24    2    5    5    0    0 -0.88047561455E+01  0.30190986783E+02 -0.21642005542E+03  0.23206766246E+03  0.77644962221E+02 0.  0.
        5    1    3    3  501    0 -0.42036316370E+01  0.74711475581E+02 -0.11687390215E+03  0.13885630741E+03  0.47000000000E+01 0. -1.
        4    1    4    4  502    0 -0.57258925918E+02 -0.96452117440E+01 -0.36462678230E+03  0.36922121428E+03  0.00000000000E+00 0. -1.
       -3    1    4    4    0  502  0.26123985864E+02 -0.73049469017E+00 -0.84026693743E+02  0.87997054049E+02  0.00000000000E+00 0.  1.
       -5    1    5    5    0  503  0.44143327837E+02 -0.94526755930E+02 -0.26430503619E+03  0.28418864005E+03  0.47000000000E+01 0.  1.
       13    1    6    6    0    0 -0.30747488659E+02 -0.14244565753E+02 -0.77981665651E+02  0.85026207078E+02  0.00000000000E+00 0. -1.
      -14    1    6    6    0    0  0.21942732514E+02  0.44435552535E+02 -0.13843838977E+03  0.14704145538E+03  0.00000000000E+00 0.  1.
</event>
<event>
12   0  0.1523332E-01  0.2016736E+03  0.7957747E-01  0.1154627E+00
       21   -1    0    0  501  503  0.00000000000E+00  0.00000000000E+00  0.31459730517E+03  0.31459730517E+03  0.00000000000E+00 0. -1.
       21   -1    0    0  503  504  0.00000000000E+00  0.00000000000E+00 -0.13201319708E+03  0.13201319708E+03  0.00000000000E+00 0. -1.
        6    2    1    2  501    0 -0.53538532407E+01 -0.10145738149E+03  0.12557608594E+03  0.23703434434E+03  0.17347525193E+03 0.  0.
       24    2    3    3    0    0  0.10513248535E+02  0.18000255628E+02  0.65659341806E+02  0.10237180979E+03  0.75725165401E+02 0.  0.
       -6    2    1    2    0  504  0.53538532407E+01  0.10145738149E+03  0.57008022151E+02  0.20957615792E+03  0.17421247767E+03 0.  0.
      -24    2    5    5    0    0  0.69513794286E+02  0.49097970927E+02  0.27314902121E+02  0.12147520851E+03  0.82263868492E+02 0.  0.
        5    1    3    3  501    0 -0.15867101776E+02 -0.11945763712E+03  0.59916744135E+02  0.13466253455E+03  0.47000000000E+01 0. -1.
      -13    1    4    4    0    0  0.16074634783E+02 -0.12846667518E+01  0.77438563609E+02  0.79099781200E+02  0.00000000000E+00 0.  1.
       14    1    4    4    0    0 -0.55613862477E+01  0.19284922380E+02 -0.11779221803E+02  0.23272028585E+02  0.00000000000E+00 0. -1.
       -5    1    5    5    0  504 -0.64159941045E+02  0.52359410564E+02  0.29693120031E+02  0.88100949408E+02  0.47000000000E+01 0.  1.
        1    1    6    6  502    0 -0.16506740126E+02  0.20932584825E+02 -0.87661218769E+00  0.26672345716E+02  0.00000000000E+00 0. -1.
       -2    1    6    6    0  502  0.86020534412E+02  0.28165386102E+02  0.28191514308E+02  0.94802862793E+02  0.00000000000E+00 0.  1.
</event>
<event>
12   0  0.1523332E-01  0.1768843E+03  0.7957747E-01  0.1176364E+00
       21   -1    0    0  504  503  0.00000000000E+00  0.00000000000E+00  0.68593861976E+03  0.68593861976E+03  0.00000000000E+00 0. -1.
       21   -1    0    0  501  504  0.00000000000E+00  0.00000000000E+00 -0.71154267362E+02  0.71154267362E+02  0.00000000000E+00 0. -1.
        6    2    1    2  501    0  0.27768403842E+02 -0.13478422120E+02  0.78751697621E+02  0.19262936717E+03  0.17306499098E+03 0.  0.
       24    2    3    3    0    0 -0.22747301533E+02  0.42782222367E+02  0.67773060031E+02  0.11608057821E+03  0.80831644135E+02 0.  0.
       -6    2    1    2    0  503 -0.27768403842E+02  0.13478422120E+02  0.53603265478E+03  0.56446351995E+03  0.17417033690E+03 0.  0.
      -24    2    5    5    0    0 -0.15844680854E+02  0.61969359631E+02  0.47199970261E+03  0.48312561272E+03  0.80841715431E+02 0.  0.
        5    1    3    3  501    0  0.50515705376E+02 -0.56260644487E+02  0.10978637590E+02  0.76548788959E+02  0.47000000000E+01 0. -1.
      -11    1    4    4    0    0 -0.35887314996E+02 -0.68396480672E+01  0.49651259220E+02  0.61643553641E+02  0.00000000000E+00 0.  1.
       12    1    4    4    0    0  0.13140013463E+02  0.49621870434E+02  0.18121800810E+02  0.54437024568E+02  0.00000000000E+00 0. -1.
       -5    1    5    5    0  503 -0.11923722988E+02 -0.48490937510E+02  0.64032952163E+02  0.81337907234E+02  0.47000000000E+01 0.  1.
        1    1    6    6  502    0  0.96814875621E+01  0.66628066478E+02  0.22752042873E+03  0.23727320947E+03  0.00000000000E+00 0. -1.
       -2    1    6    6    0  502 -0.25526168416E+02 -0.46587068478E+01  0.24447927388E+03  0.24585240325E+03  0.00000000000E+00 0.  1.
</event>
<event>
12   0  0.1523332E-01  0.2692265E+03  0.7957747E-01  0.1109469E+00
       21   -1    0    0  504  503  0.00000000000E+00  0.00000000000E+00  0.25779734606E+03  0.25779734606E+03  0.00000000000E+00 0. -1.
       21   -1    0    0  501  504  0.00000000000E+00  0.00000000000E+00 -0.28607725574E+03  0.28607725574E+03  0.00000000000E+00 0.  1.
        6    2    1    2  501    0 -0.52733602131E+02 -0.19947400387E+03  0.22536530529E+02  0.26989424196E+03  0.17252331906E+03 0.  0.
       24    2    3    3    0    0 -0.84312817296E+02 -0.20574319321E+03  0.22952408532E+02  0.23735484246E+03  0.79822274259E+02 0.  0.
       -6    2    1    2    0  503  0.52733602131E+02  0.19947400387E+03 -0.50816440215E+02  0.27398035984E+03  0.17295148444E+03 0.  0.
      -24    2    5    5    0    0  0.57251563770E+02  0.55568683987E+02  0.16334227052E+02  0.11504497932E+03  0.81258354026E+02 0.  0.
        5    1    3    3  501    0  0.31579215165E+02  0.62691893400E+01 -0.41587800255E+00  0.32539399502E+02  0.47000000000E+01 0. -1.
      -13    1    4    4    0    0  0.10877745379E+02 -0.16230562441E+01  0.42968656181E+00  0.11006556530E+02  0.00000000000E+00 0.  1.
       14    1    4    4    0    0 -0.95190562675E+02 -0.20412013696E+03  0.22522721970E+02  0.22634828593E+03  0.00000000000E+00 0. -1.
       -5    1    5    5    0  503 -0.45179616390E+01  0.14390531988E+03 -0.67150667267E+02  0.15893538052E+03  0.47000000000E+01 0.  1.
        1    1    6    6  502    0  0.55588463280E+02  0.75565779125E+02  0.13105070742E+02  0.94720679388E+02  0.00000000000E+00 0. -1.
       -2    1    6    6    0  502  0.16631004894E+01 -0.19997095138E+02  0.32291563093E+01  0.20324299930E+02  0.00000000000E+00 0.  1.
</event>
<event>
12   0  0.1523332E-01  0.2140359E+03  0.7957747E-01  0.1145030E+00
       21   -1    0    0  501  503  0.00000000000E+00  0.00000000000E+00  0.50523003467E+03  0.50523003467E+03  0.00000000000E+00 0.  1.
       21   -1    0    0  503  504  0.00000000000E+00  0.00000000000E+00 -0.94949481557E+02  0.94949481557E+02  0.00000000000E+00 0.  1.
        6    2    1    2  501    0  0.11466971104E+03 -0.35529044906E+02  0.28043152376E+03  0.35277923347E+03  0.17720014782E+03 0.  0.
       24    2    3    3    0    0  0.14714824999E+03 -0.70876099320E+01  0.24795258734E+03  0.29855062454E+03  0.77130721177E+02 0.  0.
       -6    2    1    2    0  504 -0.11466971104E+03  0.35529044906E+02  0.12984902936E+03  0.24740028276E+03  0.17301639756E+03 0.  0.
      -24    2    5    5    0    0 -0.10471840842E+01  0.46499512250E+02  0.74869312040E+02  0.12061191933E+03  0.82331767655E+02 0.  0.
        5    1    3    3  501    0 -0.32478538955E+02 -0.28441434974E+02  0.32478936412E+02  0.54228608930E+02  0.47000000000E+01 0. -1.
        2    1    4    4  502    0  0.74289018759E+02 -0.60153387378E+01  0.55978974555E+02  0.93213133198E+02  0.00000000000E+00 0. -1.
       -1    1    4    4    0  502  0.72859231235E+02 -0.10722711943E+01  0.19197361279E+03  0.20533749134E+03  0.00000000000E+00 0.  1.
       -5    1    5    5    0  504 -0.11362252695E+03 -0.10970467344E+02  0.54979717318E+02  0.12678836343E+03  0.47000000000E+01 0.  1.
       13    1    6    6    0    0 -0.28940964924E+02 -0.67852477863E+01  0.43751934455E+02  0.52894714356E+02  0.00000000000E+00 0. -1.
      -14    1    6    6    0    0  0.27893780840E+02  0.53284760037E+02  0.31117377585E+02  0.67717204974E+02  0.00000000000E+00 0.  1.
</event>
<event>
12   0  0.1523332E-01  0.2089938E+03  0.7957747E-01  0.1148856E+00
       21   -1    0    0  504  503  0.00000000000E+00  0.00000000000E+00  0.44997161779E+03  0.44997161779E+03  0.00000000000E+00 0.  1.
       21   -1    0    0  501  504  0.00000000000E+00  0.00000000000E+00 -0.16577974348E+03  0.16577974348E+03  0.00000000000E+00 0. -1.
        6    2    1    2  501    0 -0.10685515276E+03  0.53077191641E+01 -0.59846009870E+02  0.21320884747E+03  0.17444274760E+03 0.  0.
       24    2    3    3    0    0 -0.14396653663E+03  0.70703748093E+01 -0.59944934229E+02  0.17575939415E+03  0.80756520628E+02 0.  0.
       -6    2    1    2    0  503  0.10685515276E+03 -0.53077191641E+01  0.34403788418E+03  0.40254251380E+03  0.17953332313E+03 0.  0.
      -24    2    5    5    0    0  0.99158686799E+02 -0.67499798418E+02  0.26166435972E+03  0.29893470598E+03  0.80653910860E+02 0.  0.
        5    1    3    3  501    0  0.37111383875E+02 -0.17626556452E+01  0.98924359691E-01  0.37449453321E+02  0.47000000000E+01 0. -1.
        4    1    4    4  502    0 -0.10905787925E+03  0.26135177788E+02 -0.73098135386E+02  0.13386562644E+03  0.00000000000E+00 0. -1.
       -3    1    4    4    0  502 -0.34908657376E+02 -0.19064802979E+02  0.13153201157E+02  0.41893767712E+02  0.00000000000E+00 0.  1.
       -5    1    5    5    0  503  0.76964659572E+01  0.62192079254E+02  0.82373524459E+02  0.10360780782E+03  0.47000000000E+01 0.  1.
       13    1    6    6    0    0  0.49099467527E+02 -0.39737629134E+02  0.52671101083E+02  0.82244037899E+02  0.00000000000E+00 0. -1.
      -14    1    6    6    0    0  0.50059219272E+02 -0.27762169285E+02  0.20899325864E+03  0.21669066808E+03  0.00000000000E+00 0.  1.
</event>
<event>
12   0  0.1523332E-01  0.2088684E+03  0.7957747E-01  0.1148953E+00
       -2   -1    0    0    0  501  0.00000000000E+00  0.00000000000E+00  0.59815503449E+02  0.59815503449E+02  0.00000000000E+00 0. -1.
        2   -1    0    0  502    0  0.00000000000E+00  0.00000000000E+00 -0.73351673428E+03  0.73351673428E+03  0.00000000000E+00 0.  1.
        6    2    1    2  502    0  0.70415076772E+02 -0.92540728784E+02 -0.30937223348E+03  0.37409232029E+03  0.17524786939E+03 0.  0.
       24    2    3    3    0    0 -0.25791271599E+02 -0.57407828939E+02 -0.19934202563E+03  0.22369711172E+03  0.79638596782E+02 0.  0.
       -6    2    1    2    0  501 -0.70415076772E+02  0.92540728784E+02 -0.36432899735E+03  0.41923991744E+03  0.17176850860E+03 0.  0.
      -24    2    5    5    0    0 -0.23390609799E+02  0.61482555509E+02 -0.86887216886E+02  0.13609341443E+03  0.81515665577E+02 0.  0.
        5    1    3    3  502    0  0.96206348371E+02 -0.35132899845E+02 -0.11003020785E+03  0.15039520856E+03  0.47000000000E+01 0. -1.
        2    1    4    4  503    0 -0.26698864763E+02  0.13451191712E+02 -0.47371590773E+02  0.56016350742E+02  0.00000000000E+00 0. -1.
       -1    1    4    4    0  503  0.90759316392E+00 -0.70859020651E+02 -0.15197043486E+03  0.16768076098E+03  0.00000000000E+00 0.  1.
       -5    1    5    5    0  501 -0.47024466974E+02  0.31058173275E+02 -0.27744178046E+03  0.28314650301E+03  0.47000000000E+01 0.  1.
       11    1    6    6    0    0  0.12441643308E+02 -0.13286533137E+02 -0.35656675028E+01  0.18548327033E+02  0.00000000000E+00 0. -1.
      -12    1    6    6    0    0 -0.35832253107E+02  0.74769088646E+02 -0.83321549383E+02  0.11754508740E+03  0.00000000000E+00 0.  1.
</event>
<event>
12   0  0.1523332E-01  0.1765297E+03  0.7957747E-01  0.1176703E+00
       21   -1    0    0  504  503  0.00000000000E+00  0.00000000000E+00  0.49799006883E+03  0.49799006883E+03  0.00000000000E+00 0.  1.
       21   -1    0    0  501  504  0.00000000000E+00  0.00000000000E+00 -0.61540894281E+02  0.61540894281E+02  0.00000000000E+00 0.  1.
        6    2    1    2  501    0  0.26217813177E+02 -0.30608948838E+01  0.22348066593E+03  0.28479172645E+03  0.17454505609E+03 0.  0.
       24    2    3    3    0    0  0.58005478397E+02  0.47666590121E+02  0.17585494155E+03  0.20814948602E+03  0.82246633529E+02 0.  0.
       -6    2    1    2    0  503 -0.26217813177E+02  0.30608948838E+01  0.21296850862E+03  0.27473923666E+03  0.17154975864E+03 0.  0.
      -24    2    5    5    0    0  0.92704396168E+01  0.25487707309E+02  0.21588972939E+03  0.23239538784E+03  0.81631346670E+02 0.  0.
        5    1    3    3  501    0 -0.31787665220E+02 -0.50727485004E+02  0.47625724379E+02  0.76642240427E+02  0.47000000000E+01 0. -1.
        2    1    4    4  502    0  0.64025927557E+02  0.42268783081E+01  0.78606781017E+02  0.10147025141E+03  0.00000000000E+00 0. -1.
       -1    1    4    4    0  502 -0.60204491597E+01  0.43439711812E+02  0.97248160532E+02  0.10667923461E+03  0.00000000000E+00 0.  1.
       -5    1    5    5    0  503 -0.35488252794E+02 -0.22426812425E+02 -0.29212207705E+01  0.42343848818E+02  0.47000000000E+01 0.  1.
       11    1    6    6    0    0  0.45149374423E+02  0.21152716654E+02  0.12763871265E+03  0.13703118040E+03  0.00000000000E+00 0. -1.
      -12    1    6    6    0    0 -0.35878934806E+02  0.43349906549E+01  0.88251016735E+02  0.95364207445E+02  0.00000000000E+00 0.  1.
</event>
<event>
12   0  0.1523332E-01  0.1913438E+03  0.7957747E-01  0.1163244E+00
       21   -1    0    0  501  503  0.00000000000E+00  0.00000000000E+00  0.27073002259E+03  0.27073002259E+03  0.00000000000E+00 0.  1.
       21   -1    0    0  503  504  0.00000000000E+00  0.00000000000E+00 -0.13659728172E+03  0.13659728172E+03  0.00000000000E+00 0.  1.
        6    2    1    2  501    0  0.60488378002E+02  0.55747818427E+02  0.46490332109E+02  0.19691063030E+03  0.17275931875E+03 0.  0.
       24    2    3    3    0    0  0.94442221240E+01 -0.20316640202E+02  0.62965649864E+02  0.10371817454E+03  0.79314736756E+02 0.  0.
       -6    2    1    2    0  504 -0.60488378002E+02 -0.55747818427E+02  0.87642408761E+02  0.21041667402E+03  0.17270588223E+03 0.  0.
      -24    2    5    5    0    0  0.45458985235E+01  0.11628820210E+02  0.84473919772E+02  0.11660197432E+03  0.79399512847E+02 0.  0.
        5    1    3    3  501    0  0.51044155878E+02  0.76064458629E+02 -0.16475317755E+02  0.93192455762E+02  0.47000000000E+01 0. -1.
        4    1    4    4  502    0 -0.33457752409E+02 -0.93087604930E+01  0.13342518564E+02  0.37203454407E+02  0.00000000000E+00 0. -1.
       -3    1    4    4    0  502  0.42901974533E+02 -0.11007879709E+02  0.49623131300E+02  0.66514720134E+02  0.00000000000E+00 0.  1.
       -5    1    5    5    0  504 -0.65034276525E+02 -0.67376638637E+02  0.31684889896E+01  0.93814699699E+02  0.47000000000E+01 0.  1.
       13    1    6    6    0    0  0.62679560984E+01  0.14059691667E+02 -0.12348074128E+02  0.19734161702E+02  0.00000000000E+00 0. -1.
      -14    1    6    6    0    0 -0.17220575749E+01 -0.24308714567E+01  0.96821993899E+02  0.96867812616E+02  0.00000000000E+00 0.  1.
</event>
<event>
12   0  0.1523332E-01  0.2068539E+03  0.7957747E-01  0.1150516E+00
        1   -1    0    0  502    0  0.00000000000E+00  0.00000000000E+00  0.21447160015E+03  0.21447160015E+03  0.00000000000E+00 0.  1.
       -1   -1    0    0    0  501  0.00000000000E+00  0.00000000000E+00 -0.20915293034E+03  0.20915293034E+03  0.00000000000E+00 0. -1.
        6    2    1    2  502    0  0.67600536118E+02  0.91057872775E+02  0.48092729056E+02  0.21071712280E+03  0.17096030702E+03 0.  0.
       24    2    3    3    0    0  0.82754528674E+02  0.12202695558E+03  0.26445749380E+02  0.16973652607E+03  0.79826190674E+02 0.  0.
       -6    2    1    2    0  501 -0.67600536118E+02 -0.91057872775E+02 -0.42774059250E+02  0.21290740768E+03  0.17503878262E+03 0.  0.
      -24    2    5    5    0    0 -0.48976162297E+02 -0.10306164385E+03 -0.89627112390E+02  0.16086649677E+03  0.69459654473E+02 0.  0.
        5    1    3    3  502    0 -0.15153992556E+02 -0.30969082801E+02  0.21646979676E+02  0.40980596738E+02  0.47000000000E+01 0. -1.
      -11    1    4    4    0    0 -0.11268417900E+02  0.42505889457E+02  0.13041464790E+02  0.45867283376E+02  0.00000000000E+00 0.  1.
       12    1    4    4    0    0  0.94022946574E+02  0.79521066119E+02  0.13404284590E+02  0.12386924269E+03  0.00000000000E+00 0. -1.
       -5    1    5    5    0  501 -0.18624373821E+02  0.12003771077E+02  0.46853053140E+02  0.52040910915E+02  0.47000000000E+01 0.  1.
        3    1    6    6  503    0 -0.55250755506E+02 -0.70064300740E+02 -0.33210637913E+02  0.95208186059E+02  0.00000000000E+00 0. -1.
       -4    1    6    6    0  503  0.62745932091E+01 -0.32997343112E+02 -0.56416474477E+02  0.65658310706E+02  0.00000000000E+00 0.  1.
</event>
<event>
12   0  0.1523332E-01  0.1868453E+03  0.7957747E-01  0.1167185E+00
       21   -1    0    0  504  503  0.00000000000E+00  0.00000000000E+00  0.50883517148E+03  0.50883517148E+03  0.00000000000E+00 0.  1.
       21   -1    0    0  501  504  0.00000000000E+00  0.00000000000E+00 -0.67880121273E+02  0.67880121273E+02  0.00000000000E+00 0.  1.
        6    2    1    2  501    0  0.10282353168E+02  0.24863152588E+02  0.14864028714E+03  0.22978722605E+03  0.17315984278E+03 0.  0.
       24    2    3    3    0    0 -0.22847195022E+01 -0.52836529780E+02  0.83758109360E+02  0.12767474420E+03  0.80551229665E+02 0.  0.
       -6    2    1    2    0  503 -0.10282353168E+02 -0.24863152588E+02  0.29231476307E+03  0.34692806671E+03  0.18489797083E+03 0.  0.
      -24    2    5    5    0    0 -0.50726870570E+02  0.43596450973E+02  0.13541474408E+03  0.17096732601E+03  0.80117461978E+02 0.  0.
        5    1    3    3  501    0  0.12567072670E+02  0.77699682369E+02  0.64882177777E+02  0.10211248185E+03  0.47000000000E+01 0. -1.
        4    1    4    4  502    0 -0.39416687717E+02 -0.37247450083E+02  0.60172512954E+02  0.81004809261E+02  0.00000000000E+00 0. -1.
       -3    1    4    4    0  502  0.37131968215E+02 -0.15589079697E+02  0.23585596406E+02  0.46669934939E+02  0.00000000000E+00 0.  1.
       -5    1    5    5    0  503  0.40444517402E+02 -0.68459603561E+02  0.15690001899E+03  0.17596074069E+03  0.47000000000E+01 0.  1.
       13    1    6    6    0    0  0.10332138378E+01  0.89259632681E+01 -0.95926005941E+01  0.13143756588E+02  0.00000000000E+00 0. -1.
      -14    1    6    6    0    0 -0.51760084407E+02  0.34670487705E+02  0.14500734468E+03  0.15782356943E+03  0.00000000000E+00 0.  1.
</event>
<event>
12   0  0.1523332E-01  0.2512143E+03  0.7957747E-01  0.1119968E+00
       21   -1    0    0  504  503  0.00000000000E+00  0.00000000000E+00  0.40763639277E+03  0.40763639277E+03  0.00000000000E+00 0.  1.
       21   -1    0    0  501  504  0.00000000000E+00  0.00000000000E+00 -0.17374418709E+03  0.17374418709E+03  0.00000000000E+00 0. -1.
        6    2    1    2  501    0  0.44457178627E+02 -0.17693175374E+03  0.21426781785E+03  0.33018070773E+03  0.17270586492E+03 0.  0.
       24    2    3    3    0    0  0.32050864931E+02 -0.12400821185E+03  0.22825588121E+03  0.27385510233E+03  0.80564106284E+02 0.  0.
       -6    2    1    2    0  503 -0.44457178627E+02  0.17693175374E+03  0.19624387832E+02  0.25119987213E+03  0.17156623487E+03 0.  0.
      -24    2    5    5    0    0 -0.93691352688E+02  0.14801236486E+03  0.21557661921E+02  0.19387481219E+03  0.80230793919E+02 0.  0.
        5    1    3    3  501    0  0.12406313696E+02 -0.52923541897E+02 -0.13988063359E+02  0.56325605394E+02  0.47000000000E+01 0. -1.
      -11    1    4    4    0    0 -0.74030012285E+01 -0.14689163220E+02  0.97651741315E+02  0.99027463489E+02  0.00000000000E+00 0.  1.
       12    1    4    4    0    0  0.39453866160E+02 -0.10931904863E+03  0.13060413989E+03  0.17482763885E+03  0.00000000000E+00 0. -1.
       -5    1    5    5    0  503  0.49234174061E+02  0.28919388885E+02 -0.19332740892E+01  0.57325059945E+02  0.47000000000E+01 0.  1.
        1    1    6    6  502    0  0.45667440481E+01  0.60177021022E+02  0.13052562620E+00  0.60350195088E+02  0.00000000000E+00 0. -1.
       -2    1    6    6    0  502 -0.98258096736E+02  0.87835343836E+02  0.21427136295E+02  0.13352461710E+03  0.00000000000E+00 0.  1.
</event>
<event>
12   0  0.1523332E-01  0.2489755E+03  0.7957747E-01  0.1121340E+00
       21   -1    0    0  504  503  0.00000000000E+00  0.00000000000E+00  0.76482544882E+03  0.76482544882E+03  0.00000000000E+00 0. -1.
       21   -1    0    0  501  504  0.00000000000E+00  0.00000000000E+00 -0.85145243841E+02  0.85145243841E+02  0.00000000000E+00 0. -1.
        6    2    1    2  501    0  0.10452943906E+03  0.14509725194E+03  0.24599180534E+03  0.34989628952E+03  0.17301973579E+03 0.  0.
       24    2    3    3    0    0  0.40156846310E+02  0.79265447837E+02  0.43561462885E+02  0.12746025225E+03  0.80330139598E+02 0.  0.
       -6    2    1    2    0  503 -0.10452943906E+03 -0.14509725194E+03  0.43368839964E+03  0.50007440315E+03  0.17323153451E+03 0.  0.
      -24    2    5    5    0    0 -0.15619117951E+02 -0.13758656746E+03  0.29458729029E+03  0.33474846990E+03  0.78107913234E+02 0.  0.
        5    1    3    3  501    0  0.64372592752E+02  0.65831804102E+02  0.20243034246E+03  0.22243603727E+03  0.47000000000E+01 0. -1.
      -13    1    4    4    0    0  0.11105368617E+02  0.83638095903E+02  0.13533102766E+02  0.85450600752E+02  0.00000000000E+00 0.  1.
       14    1    4    4    0    0  0.29051477693E+02 -0.43726480667E+01  0.30028360118E+02  0.42009651494E+02  0.00000000000E+00 0. -1.
       -5    1    5    5    0  503 -0.88910321111E+02 -0.75106844787E+01  0.13910110935E+03  0.16532593325E+03  0.47000000000E+01 0.  1.
        1    1    6    6  502    0 -0.43980241721E+02 -0.85465351790E+02  0.21471494188E+03  0.23524687943E+03  0.00000000000E+00 0. -1.
       -2    1    6    6    0  502  0.28361123770E+02 -0.52121215670E+02  0.79872348412E+02  0.99501590466E+02  0.00000000000E+00 0.  1.
</event>
<event>
12   0  0.1523332E-01  0.2562840E+03  0.7957747E-01  0.1116919E+00
       21   -1    0    0  501  503  0.00000000000E+00  0.00000000000E+00  0.82168492337E+02  0.82168492337E+02  0.00000000000E+00 0. -1.
       21   -1    0    0  503  504  0.00000000000E+00  0.00000000000E+00 -0.87703464239E+03  0.87703464239E+03  0.00000000000E+00 0. -1.
        6    2    1    2  501    0  0.11893000556E+03  0.12110273955E+03 -0.22952273542E+03  0.34403804974E+03  0.19201894137E+03 0.  0.
       24    2    3    3    0    0  0.16221330106E+03  0.91561489118E+02 -0.17282412942E+03  0.26668851148E+03  0.80980992312E+02 0.  0.
       -6    2    1    2    0  504 -0.11893000556E+03 -0.12110273955E+03 -0.56534341463E+03  0.61516508499E+03  0.17321860630E+03 0.  0.
      -24    2    5    5    0    0 -0.81642710406E+01 -0.10010186943E+03 -0.27663182737E+03  0.30518677105E+03  0.80788351428E+02 0.  0.
        5    1    3    3  501    0 -0.43283295499E+02  0.29541250434E+02 -0.56698606000E+02  0.77349538259E+02  0.47000000000E+01 0. -1.
        4    1    4    4  502    0  0.48787941560E+02  0.17377581630E+02 -0.65916010088E+01  0.52208167837E+02  0.00000000000E+00 0. -1.
       -3    1    4    4    0  502  0.11342535950E+03  0.74183907487E+02 -0.16623252841E+03  0.21448034364E+03  0.00000000000E+00 0.  1.
       -5    1    5    5    0  504 -0.11076573452E+03 -0.21000870124E+02 -0.28871158727E+03  0.30997831394E+03  0.47000000000E+01 0.  1.
       11    1    6    6    0    0 -0.25418666554E+02 -0.67863878944E-01 -0.79328360966E+02  0.83301272910E+02  0.00000000000E+00 0. -1.
      -12    1    6    6    0    0  0.17254395513E+02 -0.10003400555E+03 -0.19730346640E+03  0.22188549814E+03  0.00000000000E+00 0.  1.
</event>
<event>
12   0  0.1523332E-01  0.2108562E+03  0.7957747E-01  0.1147429E+00
       -1   -1    0    0    0  501  0.00000000000E+00  0.00000000000E+00  0.17854111835E+03  0.17854111835E+03  0.00000000000E+00 0.  1.
        1   -1    0    0  502    0  0.00000000000E+00  0.00000000000E+00 -0.31068121889E+03  0.31068121889E+03  0.00000000000E+00 0. -1.
        6    2    1    2  502    0  0.11842385903E+03  0.12868345904E+02 -0.17529931190E+03  0.27501118415E+03  0.17524696271E+03 0.  0.
       24    2    3    3    0    0 -0.53909095723E+00  0.19804157499E+02 -0.36498779813E+02  0.92014007506E+02  0.82109203967E+02 0.  0.
       -6    2    1    2    0  501 -0.11842385903E+03 -0.12868345904E+02  0.43159211367E+02  0.21421115309E+03  0.17272491387E+03 0.  0.
      -24    2    5    5    0    0 -0.85041289897E+01  0.36016359174E+02  0.20886362742E+01  0.87006815195E+02  0.78716739966E+02 0.  0.
        5    1    3    3  502    0  0.11896294998E+03 -0.69358115944E+01 -0.13880053209E+03  0.18299717664E+03  0.47000000000E+01 0. -1.
      -13    1    4    4    0    0  0.86517109635E+01  0.40896398799E+02 -0.50129877351E+02  0.65271526262E+02  0.00000000000E+00 0.  1.
       14    1    4    4    0    0 -0.91908019207E+01 -0.21092241300E+02  0.13631097538E+02  0.26742481244E+02  0.00000000000E+00 0. -1.
       -5    1    5    5    0  501 -0.10991973004E+03 -0.48884705078E+02  0.41070575093E+02  0.12720433790E+03  0.47000000000E+01 0.  1.
        1    1    6    6  503    0 -0.40645461681E+02  0.28146333113E+02 -0.12263172780E+02  0.50937756425E+02  0.00000000000E+00 0. -1.
       -2    1    6    6    0  503  0.32141332691E+02  0.78700260603E+01  0.14351809054E+02  0.36069058769E+02  0.00000000000E+00 0.  1.
</event>
<event>
12   0  0.1523332E-01  0.1854844E+03  0.7957747E-01  0.1168402E+00
       21   -1    0    0  501  503  0.00000000000E+00  0.00000000000E+00  0.69015862399E+02  0.69015862399E+02  0.00000000000E+00 0. -1.
       21   -1    0    0  503  504  0.00000000000E+00  0.00000000000E+00 -0.57176932742E+03  0.57176932742E+03  0.00000000000E+00 0. -1.
        6    2    1    2  501    0  0.58916821596E+02  0.30418692043E+02 -0.13663166594E+03  0.23037509041E+03  0.17322811970E+03 0.  0.
       24    2    3    3    0    0  0.21440672604E+01  0.74599515670E+02 -0.65315334993E+02  0.12896897684E+03  0.82445249944E+02 0.  0.
       -6    2    1    2    0  504 -0.58916821596E+02 -0.30418692043E+02 -0.36612179908E+03  0.41041009941E+03  0.17319003793E+03 0.  0.
      -24    2    5    5    0    0 -0.98097250818E+02  0.10873265204E+02 -0.25447411939E+03  0.28500106405E+03  0.82019696160E+02 0.  0.
        5    1    3    3  501    0  0.56772754335E+02 -0.44180823627E+02 -0.71316330944E+02  0.10140611358E+03  0.47000000000E+01 0. -1.
        2    1    4    4  502    0 -0.18372963469E+02  0.72886617858E+02 -0.17888242707E+02  0.77265866180E+02  0.00000000000E+00 0. -1.
       -1    1    4    4    0  502  0.20517030729E+02  0.17128978119E+01 -0.47427092285E+02  0.51703110656E+02  0.00000000000E+00 0.  1.
       -5    1    5    5    0  504  0.39180429223E+02 -0.41291957247E+02 -0.11164767969E+03  0.12540903535E+03  0.47000000000E+01 0.  1.
       13    1    6    6    0    0  0.73915583492E+01  0.19731551718E+02 -0.59838026278E+02  0.63439409336E+02  0.00000000000E+00 0. -1.
      -14    1    6    6    0    0 -0.10548880917E+03 -0.88582865135E+01 -0.19463609311E+03  0.22156165472E+03  0.00000000000E+00 0.  1.
</event>
<event>
12   0  0.1523332E-01  0.1954995E+03  0.7957747E-01  0.1159707E+00
       21   -1    0    0  501  503  0.00000000000E+00  0.00000000000E+00  0.10222554477E+03  0.10222554477E+03  0.00000000000E+00 0.  1.
       21   -1    0    0  503  504  0.00000000000E+00  0.00000000000E+00 -0.67916627043E+03  0.67916627043E+03  0.00000000000E+00 0.  1.
        6    2    1    2  501    0  0.64829667087E+02  0.60298538753E+02 -0.24609733882E+02  0.19548264102E+03  0.17253702336E+03 0.  0.
       24    2    3    3    0    0  0.55533649556E+01 -0.20930586881E+02 -0.44017345110E+02  0.92961442145E+02  0.78964382639E+02 0.  0.
       -6    2    1    2    0  504 -0.64829667087E+02 -0.60298538753E+02 -0.55233099178E+03  0.58590917418E+03  0.17430214109E+03 0.  0.
      -24    2    5    5    0    0 -0.59058112208E+02 -0.10402241594E+03 -0.46043041784E+03  0.48386558656E+03  0.88437619543E+02 0.  0.
        5    1    3    3  501    0  0.59276302132E+02  0.81229125634E+02  0.19407611229E+02  0.10252119888E+03  0.47000000000E+01 0. -1.
        2    1    4    4  502    0 -0.17382762395E+02 -0.11029743367E+02  0.17210556610E+02  0.26833168394E+02  0.00000000000E+00 0. -1.
       -1    1    4    4    0  502  0.22936127351E+02 -0.99008435142E+01 -0.61227901721E+02  0.66128273751E+02  0.00000000000E+00 0.  1.
       -5    1    5    5    0  504 -0.57715548795E+01  0.43723877186E+02 -0.91900573940E+02  0.10204358761E+03  0.47000000000E+01 0.  1.
       13    1    6    6    0    0 -0.64609679101E+02 -0.57156094583E+02 -0.18132621681E+03  0.20079946884E+03  0.00000000000E+00 0. -1.
      -14    1    6    6    0    0  0.55515668932E+01 -0.46866321356E+02 -0.27910420103E+03  0.28306611773E+03  0.00000000000E+00 0.  1.
</event>
<event>
12   0  0.1523332E-01  0.2070663E+03  0.7957747E-01  0.1150351E+00
        2   -1    0    0  502    0  0.00000000000E+00  0.00000000000E+00  0.57503707304E+03  0.57503707304E+03  0.00000000000E+00 0.  1.
       -2   -1    0    0    0  501  0.00000000000E+00  0.00000000000E+00 -0.78399156263E+02  0.78399156263E+02  0.00000000000E+00 0. -1.
        6    2    1    2  502    0  0.18325468690E+02 -0.11356911484E+03  0.17802451585E+03  0.27436312275E+03  0.17420857681E+03 0.  0.
       24    2    3    3    0    0 -0.26952217542E+01 -0.29631149053E+02  0.15773362366E+03  0.18536165179E+03  0.92702625144E+02 0.  0.
       -6    2    1    2    0  501 -0.18325468690E+02  0.11356911484E+03  0.31861340092E+03  0.37907310655E+03  0.17014157109E+03 0.  0.
      -24    2    5    5    0    0 -0.32205166309E+02 -0.16397174800E+01  0.16613669478E+03  0.18740423331E+03  0.80492756833E+02 0.  0.
        5    1    3    3  502    0  0.21020690445E+02 -0.83937965783E+02  0.20290892192E+02  0.89001470957E+02  0.47000000000E+01 0. -1.
      -11    1    4    4    0    0  0.11439063762E+02  0.31031647840E+02  0.73514609853E+02  0.80611495515E+02  0.00000000000E+00 0.  1.
       12    1    4    4    0    0 -0.14134285516E+02 -0.60662796893E+02  0.84219013807E+02  0.10475015628E+03  0.00000000000E+00 0. -1.
       -5    1    5    5    0  501  0.13879697619E+02  0.11520883232E+03  0.15247670615E+03  0.19166887324E+03  0.47000000000E+01 0.  1.
        1    1    6    6  503    0  0.12454689980E+01  0.23650499803E+02  0.99545457040E+01  0.25690276646E+02  0.00000000000E+00 0. -1.
       -2    1    6    6    0  503 -0.33450635307E+02 -0.25290217283E+02  0.15618214907E+03  0.16171395667E+03  0.00000000000E+00 0.  1.
</event>
<event>
12   0  0.1523332E-01  0.1901299E+03  0.7957747E-01  0.1164296E+00
       21   -1    0    0  504  503  0.00000000000E+00  0.00000000000E+00  0.37892781091E+03  0.37892781091E+03  0.00000000000E+00 0.  1.
       21   -1    0    0  501  504  0.00000000000E+00  0.00000000000E+00 -0.10120660018E+03  0.10120660018E+03  0.00000000000E+00 0. -1.
        6    2    1    2  501    0 -0.69758632735E+01  0.78229582788E+02  0.80803331180E+02  0.20640819269E+03  0.17293534453E+03 0.  0.
       24    2    3    3    0    0 -0.29785002956E+02 -0.65011028740E-01 -0.81761763899E+01  0.85620184005E+02  0.79854964912E+02 0.  0.
       -6    2    1    2    0  503  0.69758632735E+01 -0.78229582788E+02  0.19691787955E+03  0.27372621841E+03  0.17314982260E+03 0.  0.
      -24    2    5    5    0    0 -0.46079619139E+02 -0.25177437871E+02  0.50747948458E+02  0.10935726437E+03  0.81402839760E+02 0.  0.
        5    1    3    3  501    0  0.22809139683E+02  0.78294593817E+02  0.88979507570E+02  0.12078800868E+03  0.47000000000E+01 0. -1.
        2    1    4    4  502    0 -0.17369109572E+01  0.25288825553E+02 -0.32082022755E+02  0.40887623329E+02  0.00000000000E+00 0. -1.
       -1    1    4    4    0  502 -0.28048091999E+02 -0.25353836581E+02  0.23905846365E+02  0.44732560676E+02  0.00000000000E+00 0.  1.
       -5    1    5    5    0  503  0.53055482413E+02 -0.53052144917E+02  0.14616993109E+03  0.16436895403E+03  0.47000000000E+01 0.  1.
       11    1    6    6    0    0  0.91929177242E+01 -0.26999429578E+02 -0.70330759237E+01  0.29375893020E+02  0.00000000000E+00 0. -1.
      -12    1    6    6    0    0 -0.55272536863E+02  0.18219917064E+01  0.57781024382E+02  0.79981371354E+02  0.00000000000E+00 0.  1.
</event>
<event>
12   0  0.1523332E-01  0.2363112E+03  0.7957747E-01  0.1129407E+00
       21   -1    0    0  501  503  0.00000000000E+00  0.00000000000E+00  0.73625422186E+03  0.73625422186E+03  0.00000000000E+00 0.  1.
       21   -1    0    0  503  504  0.00000000000E+00  0.00000000000E+00 -0.94722311743E+02  0.94722311743E+02  0.00000000000E+00 0. -1.
        6    2    1    2  501    0  0.15199910450E+03  0.49485502498E+02  0.50781324027E+03  0.55945551042E+03  0.17194079919E+03 0.  0.
       24    2    3    3    0    0  0.38680393265E+02  0.12837541564E+01  0.10370550905E+03  0.13697511172E+03  0.80681644603E+02 0.  0.
       -6    2    1    2    0  504 -0.15199910450E+03 -0.49485502498E+02  0.13371866986E+03  0.27152102319E+03  0.17404149114E+03 0.  0.
      -24    2    5    5    0    0 -0.20177827009E+02 -0.42299566155E+02  0.95243387173E+02  0.13393132787E+03  0.81669454420E+02 0.  0.
        5    1    3    3  501    0  0.11331871123E+03  0.48201748341E+02  0.40410773121E+03  0.42248039870E+03  0.47000000000E+01 0. -1.
        2    1    4    4  502    0 -0.24483415168E+02 -0.53844223377E+01  0.21047132358E+02  0.32732421278E+02  0.00000000000E+00 0. -1.
       -1    1    4    4    0  502  0.63163808433E+02  0.66681764942E+01  0.82658376696E+02  0.10424269045E+03  0.00000000000E+00 0.  1.
       -5    1    5    5    0  504 -0.13182127749E+03 -0.71859363428E+01  0.38475282683E+02  0.13758969532E+03  0.47000000000E+01 0.  1.
       11    1    6    6    0    0 -0.50311476302E+02 -0.37472573309E+02  0.72484717903E+02  0.95861737557E+02  0.00000000000E+00 0. -1.
      -12    1    6    6    0    0  0.30133649293E+02 -0.48269928465E+01  0.22758669271E+02  0.38069590314E+02  0.00000000000E+00 0.  1.
</event>
<event>
12   0  0.1523332E-01  0.1966658E+03  0.7957747E-01  0.1158732E+00
        1   -1    0    0  502    0  0.00000000000E+00  0.00000000000E+00  0.27199691024E+03  0.27199691024E+03  0.00000000000E+00 0. -1.
       -1   -1    0    0    0  501  0.00000000000E+00  0.00000000000E+00 -0.16586923729E+03  0.16586923729E+03  0.00000000000E+00 0.  1.
        6    2    1    2  502    0  0.94173011271E+02  0.20922540714E+02  0.13602815157E+03  0.24008188792E+03  0.17271174287E+03 0.  0.
       24    2    3    3    0    0  0.11373753881E+03  0.61281996432E+02  0.10549124767E+03  0.18561860760E+03  0.81450312044E+02 0.  0.
       -6    2    1    2    0  501 -0.94173011271E+02 -0.20922540714E+02 -0.29900478625E+02  0.19778425961E+03  0.17005371494E+03 0.  0.
      -24    2    5    5    0    0 -0.81667590651E+02  0.15572380999E+02  0.36328865202E+02  0.12099441106E+03  0.80048526837E+02 0.  0.
        5    1    3    3  502    0 -0.19564527534E+02 -0.40359455718E+02  0.30536903899E+02  0.54463280320E+02  0.47000000000E+01 0. -1.
        2    1    4    4  503    0  0.77493393729E+02  0.49707494659E+02  0.11409811204E+03  0.14660982323E+03  0.00000000000E+00 0. -1.
       -1    1    4    4    0  503  0.36244145076E+02  0.11574501773E+02 -0.86068643695E+01  0.39008784368E+02  0.00000000000E+00 0.  1.
       -5    1    5    5    0  501 -0.12505420620E+02 -0.36494921714E+02 -0.66229343827E+02  0.76789848545E+02  0.47000000000E+01 0.  1.
       13    1    6    6    0    0 -0.91234355477E+02  0.18899252325E+01  0.12804676442E+02  0.92147920083E+02  0.00000000000E+00 0. -1.
      -14    1    6    6    0    0  0.95667648261E+01  0.13682455767E+02  0.23524188760E+02  0.28846490980E+02  0.00000000000E+00 0.  1.
</event>
<event>
12   0  0.1523332E-01  0.2409694E+03  0.7957747E-01  0.1126377E+00
       21   -1    0    0  504  503  0.00000000000E+00  0.00000000000E+00  0.32290831086E+03  0.32290831086E+03  0.00000000000E+00 0.  1.
       21   -1    0    0  501  504  0.00000000000E+00  0.00000000000E+00 -0.18281732243E+03  0.18281732243E+03  0.00000000000E+00 0. -1.
        6    2    1    2  501    0 -0.16681868574E+03 -0.97613174450E+01  0.10406018835E+03  0.26247814789E+03  0.17361594999E+03 0.  0.
       24    2    3    3    0    0 -0.11032348879E+03  0.84856060117E+01  0.13802713709E+03  0.19391794733E+03  0.79431744521E+02 0.  0.
       -6    2    1    2    0  503  0.16681868574E+03  0.97613174450E+01  0.36030800080E+02  0.24324748540E+03  0.17305306519E+03 0.  0.
      -24    2    5    5    0    0  0.17749095501E+03  0.44119371326E+02  0.46975496866E+02  0.20534960175E+03  0.80698225477E+02 0.  0.
        5    1    3    3  501    0 -0.56495196952E+02 -0.18246923457E+02 -0.33966948739E+02  0.68560200561E+02  0.47000000000E+01 0. -1.
      -13    1    4    4    0    0 -0.39863593410E+02  0.40933375644E+02  0.44591317383E+02  0.72477809756E+02  0.00000000000E+00 0.  1.
       14    1    4    4    0    0 -0.70459895378E+02 -0.32447769632E+02  0.93435819705E+02  0.12144013758E+03  0.00000000000E+00 0. -1.
       -5    1    5    5    0  503 -0.10672269271E+02 -0.34358053881E+02 -0.10944696786E+02  0.37897883656E+02  0.47000000000E+01 0.  1.
        3    1    6    6  502    0  0.64098388722E+02  0.56521135214E+02  0.13897717960E+02  0.86581688174E+02  0.00000000000E+00 0. -1.
       -4    1    6    6    0  502  0.11339256629E+03 -0.12401763888E+02  0.33077778905E+02  0.11876791357E+03  0.00000000000E+00 0.  1.
</event>
<event>
12   0  0.1523332E-01  0.1931821E+03  0.7957747E-01  0.1161668E+00
       21   -1    0    0  501  503  0.00000000000E+00  0.00000000000E+00  0.54369369718E+03  0.54369369718E+03  0.00000000000E+00 0.  1.
       21   -1    0    0  503  504  0.00000000000E+00  0.00000000000E+00 -0.85885877680E+02  0.85885877680E+02  0.00000000000E+00 0. -1.
        6    2    1    2  501    0 -0.60202238591E+02  0.60862366517E+02  0.37635211598E+03  0.41992663331E+03  0.16543556138E+03 0.  0.
       24    2    3    3    0    0 -0.77841526531E+02  0.95315380840E+02  0.27783207578E+03  0.31397172310E+03  0.79014274025E+02 0.  0.
       -6    2    1    2    0  504  0.60202238591E+02 -0.60862366517E+02  0.81455703519E+02  0.20965294155E+03  0.17317848330E+03 0.  0.
      -24    2    5    5    0    0 -0.27728522654E+02  0.19412578727E+00  0.49636199613E+02  0.97875104507E+02  0.79667277579E+02 0.  0.
        5    1    3    3  501    0  0.17639287939E+02 -0.34453014323E+02  0.98520040200E+02  0.10595491020E+03  0.47000000000E+01 0. -1.
        4    1    4    4  502    0 -0.55183893429E+02  0.13567223064E+02  0.74860632671E+02  0.93986413696E+02  0.00000000000E+00 0. -1.
       -3    1    4    4    0  502 -0.22657633102E+02  0.81748157776E+02  0.20297144311E+03  0.21998530941E+03  0.00000000000E+00 0.  1.
       -5    1    5    5    0  504  0.87930761245E+02 -0.61056492304E+02  0.31819503906E+02  0.11177783705E+03  0.47000000000E+01 0.  1.
       11    1    6    6    0    0  0.27490757602E+02 -0.19120976883E+01  0.80286702250E+01  0.28702916519E+02  0.00000000000E+00 0. -1.
      -12    1    6    6    0    0 -0.55219280256E+02  0.21062234756E+01  0.41607529388E+02  0.69172187988E+02  0.00000000000E+00 0.  1.
</event>
<event>
12   0  0.1523332E-01  0.2589725E+03  0.7957747E-01  0.1115332E+00
        2   -1    0    0  502    0  0.00000000000E+00  0.00000000000E+00  0.72476464266E+03  0.72476464266E+03  0.00000000000E+00 0.  1.
       -2   -1    0    0    0  501  0.00000000000E+00  0.00000000000E+00 -0.10467083585E+03  0.10467083585E+03  0.00000000000E+00 0. -1.
        6    2    1    2  502    0 -0.10256344711E+03 -0.16333309921E+03  0.45118153181E+03  0.52018835921E+03  0.17272577235E+03 0.  0.
       24    2    3    3    0    0  0.10386152380E+02 -0.69491693846E+02  0.23450262036E+03  0.25839519266E+03  0.82702049313E+02 0.  0.
       -6    2    1    2    0  501  0.10256344711E+03  0.16333309921E+03  0.16891227501E+03  0.30924711930E+03  0.17293195820E+03 0.  0.
      -24    2    5    5    0    0  0.14073347079E+03  0.12289673279E+03  0.12292877347E+03  0.23693790238E+03  0.78221285512E+02 0.  0.
        5    1    3    3  502    0 -0.11294959949E+03 -0.93841405364E+02  0.21667891144E+03  0.26179316655E+03  0.47000000000E+01 0. -1.
        2    1    4    4  503    0 -0.25247671333E+02  0.22541702662E+01  0.33437074103E+02  0.41959076681E+02  0.00000000000E+00 0. -1.
       -1    1    4    4    0  503  0.35633823713E+02 -0.71745864112E+02  0.20106554626E+03  0.21643611598E+03  0.00000000000E+00 0.  1.
       -5    1    5    5    0  501 -0.38170023682E+02  0.40436366421E+02  0.45983501541E+02  0.72309216917E+02  0.47000000000E+01 0.  1.
       11    1    6    6    0    0  0.10797345718E+03  0.58624461794E+02  0.10730861561E+03  0.16312643551E+03  0.00000000000E+00 0. -1.
      -12    1    6    6    0    0  0.32760013613E+02  0.64272270995E+02  0.15620157851E+02  0.73811466874E+02  0.00000000000E+00 0.  1.
</event>
<event>
12   0  0.1523332E-01  0.1899889E+03  0.7957747E-01  0.1164419E+00
        2   -1    0    0  502    0  0.00000000000E+00  0.00000000000E+00  0.12134790311E+03  0.12134790311E+03  0.00000000000E+00 0. -1.
       -2   -1    0    0    0  501  0.00000000000E+00  0.00000000000E+00 -0.34815511987E+03  0.34815511987E+03  0.00000000000E+00 0.  1.
        6    2    1    2  502    0 -0.71790830000E+02  0.31323787615E+02 -0.20280572486E+03  0.27765698637E+03  0.17270824271E+03 0.  0.
       24    2    3    3    0    0 -0.96299453928E+02 -0.11679278073E+02 -0.92115844568E+02  0.15631335899E+03  0.80861282554E+02 0.  0.
       -6    2    1    2    0  501  0.71790830000E+02 -0.31323787615E+02 -0.24001491897E+02  0.19184603661E+03  0.17347543690E+03 0.  0.
      -24    2    5    5    0    0  0.48087358566E+02 -0.15166431089E+01  0.51819436421E+02  0.10686825367E+03  0.80130364980E+02 0.  0.
        5    1    3    3  502    0  0.24508623928E+02  0.43003065688E+02 -0.11068988029E+03  0.12134362737E+03  0.47000000000E+01 0. -1.
      -11    1    4    4    0    0 -0.15600282637E+02  0.31202321831E+02 -0.24280664366E+02  0.42502992460E+02  0.00000000000E+00 0.  1.
       12    1    4    4    0    0 -0.80699171290E+02 -0.42881599905E+02 -0.67835180202E+02  0.11381036653E+03  0.00000000000E+00 0. -1.
       -5    1    5    5    0  501  0.23703471434E+02 -0.29807144506E+02 -0.75820928318E+02  0.84977782936E+02  0.47000000000E+01 0.  1.
        3    1    6    6  503    0  0.35308957436E+02  0.23248494426E+02 -0.59849646321E+01  0.42697011253E+02  0.00000000000E+00 0. -1.
       -4    1    6    6    0  503  0.12778401130E+02 -0.24765137535E+02  0.57804401053E+02  0.64171242420E+02  0.00000000000E+00 0.  1.
</event>
<event>
12   0  0.1523332E-01  0.2059979E+03  0.7957747E-01  0.1151186E+00
       21   -1    0    0  504  503  0.00000000000E+00  0.00000000000E+00  0.16471374970E+03  0.16471374970E+03  0.00000000000E+00 0.  1.
       21   -1    0    0  501  504  0.00000000000E+00  0.00000000000E+00 -0.26208756238E+03  0.26208756238E+03  0.00000000000E+00 0.  1.
        6    2    1    2  501    0  0.57814829049E+00 -0.11185091443E+03 -0.19394857954E+02  0.20653814041E+03  0.17254240526E+03 0.  0.
       24    2    3    3    0    0 -0.64047697008E+02 -0.52616898484E+02 -0.33993705340E+02  0.11754159626E+03  0.76090796751E+02 0.  0.
       -6    2    1    2    0  503 -0.57814829049E+00  0.11185091443E+03 -0.77978954726E+02  0.22026317167E+03  0.17298608643E+03 0.  0.
      -24    2    5    5    0    0  0.31398911160E+02  0.26763974546E+02  0.12420373889E+02  0.91980482714E+02  0.81264639034E+02 0.  0.
        5    1    3    3  501    0  0.64625845298E+02 -0.59234015950E+02  0.14598847385E+02  0.88996544152E+02  0.47000000000E+01 0. -1.
        2    1    4    4  502    0 -0.13606743854E+02  0.19754482789E+02 -0.37055680421E+01  0.24271676973E+02  0.00000000000E+00 0. -1.
       -1    1    4    4    0  502 -0.50440953154E+02 -0.72371381273E+02 -0.30288137297E+02  0.93269919285E+02  0.00000000000E+00 0.  1.
       -5    1    5    5    0  503 -0.31977059450E+02  0.85086939888E+02 -0.90399328615E+02  0.12828268895E+03  0.47000000000E+01 0.  1.
       11    1    6    6    0    0  0.49161102460E+02  0.11954902938E+02 -0.18059600329E+02  0.53720413843E+02  0.00000000000E+00 0. -1.
      -12    1    6    6    0    0 -0.17762191301E+02  0.14809071608E+02  0.30479974218E+02  0.38260068872E+02  0.00000000000E+00 0.  1.
</event>
<event>
12   0  0.1523332E-01  0.1896737E+03  0.7957747E-01  0.1164693E+00
       21   -1    0    0  501  503  0.00000000000E+00  0.00000000000E+00  0.72817721369E+03  0.72817721369E+03  0.00000000000E+00 0. -1.
       21   -1    0    0  503  504  0.00000000000E+00  0.00000000000E+00 -0.16227827484E+03  0.16227827484E+03  0.00000000000E+00 0.  1.
        6    2    1    2  501    0 -0.62915839269E+02 -0.43668428034E+02  0.65449898539E+03  0.68110870406E+03  0.17226378154E+03 0.  0.
       24    2    3    3    0    0 -0.34622928817E+02  0.23353226645E+02  0.21219942278E+03  0.23284161396E+03  0.86269935498E+02 0.  0.
       -6    2    1    2    0  504  0.62915839269E+02  0.43668428034E+02 -0.88600046538E+02  0.20934678447E+03  0.17352456162E+03 0.  0.
      -24    2    5    5    0    0 -0.24920515411E+02 -0.12388311504E+02 -0.48075882261E+02  0.97445572944E+02  0.80061519352E+02 0.  0.
        5    1    3    3  501    0 -0.28292910452E+02 -0.67021654679E+02  0.44229956261E+03  0.44826709009E+03  0.47000000000E+01 0. -1.
        2    1    4    4  502    0 -0.11346177237E+02 -0.19250318530E+02  0.92800736722E+01  0.24195666322E+02  0.00000000000E+00 0. -1.
       -1    1    4    4    0  502 -0.23276751580E+02  0.42603545174E+02  0.20291934911E+03  0.20864594764E+03  0.00000000000E+00 0.  1.
       -5    1    5    5    0  504  0.87836354680E+02  0.56056739539E+02 -0.40524164277E+02  0.11190121153E+03  0.47000000000E+01 0.  1.
       11    1    6    6    0    0 -0.27290364807E+02  0.22313128285E+02 -0.51593128050E+02  0.62485922952E+02  0.00000000000E+00 0. -1.
      -12    1    6    6    0    0  0.23698493962E+01 -0.34701439790E+02  0.35172457888E+01  0.34959649992E+02  0.00000000000E+00 0.  1.
</event>
<event>
12   0  0.1523332E-01  0.2310539E+03  0.7957747E-01  0.1132920E+00
       21   -1    0    0  504  503  0.00000000000E+00  0.00000000000E+00  0.37096014367E+03  0.37096014367E+03  0.00000000000E+00 0. -1.
       21   -1    0    0  501  504  0.00000000000E+00  0.00000000000E+00 -0.20708933080E+03  0.20708933080E+03  0.00000000000E+00 0.  1.
        6    2    1    2  501    0  0.22480496146E+02 -0.15034003562E+03 -0.78212492218E+02  0.24340008094E+03  0.17325965036E+03 0.  0.
       24    2    3    3    0    0  0.74902326094E+02 -0.12624034175E+03 -0.33796746661E+02  0.17043644648E+03  0.79745720044E+02 0.  0.
       -6    2    1    2    0  503 -0.22480496146E+02  0.15034003562E+03  0.24208330508E+03  0.33464939353E+03  0.17400687048E+03 0.  0.
      -24    2    5    5    0    0  0.22503828819E+02  0.48405925441E+02  0.18633342306E+03  0.20997264487E+03  0.80739154790E+02 0.  0.
        5    1    3    3  501    0 -0.52421829948E+02 -0.24099693875E+02 -0.44415745556E+02  0.72963634458E+02  0.47000000000E+01 0. -1.
      -13    1    4    4    0    0 -0.28551355023E+01 -0.28973449654E+02 -0.35482132896E+02  0.45897650685E+02  0.00000000000E+00 0.  1.
       14    1    4    4    0    0  0.77757461596E+02 -0.97266892095E+02  0.16853862343E+01  0.12453879580E+03  0.00000000000E+00 0. -1.
       -5    1    5    5    0  503 -0.44984324965E+02  0.10193411018E+03  0.55749882023E+02  0.12467674866E+03  0.47000000000E+01 0.  1.
        1    1    6    6  502    0  0.14162138299E+02 -0.18795155902E+02  0.21922939832E+02  0.32162701029E+02  0.00000000000E+00 0. -1.
       -2    1    6    6    0  502  0.83416905205E+01  0.67201081343E+02  0.16441048323E+03  0.17780994385E+03  0.00000000000E+00 0.  1.
</event>
<event>
12   0  0.1523332E-01  0.1985034E+03  0.7957747E-01  0.1157210E+00
       21   -1    0    0  504  503  0.00000000000E+00  0.00000000000E+00  0.26211292439E+03  0.26211292439E+03  0.00000000000E+00 0. -1.
       21   -1    0    0  501  504  0.00000000000E+00  0.00000000000E+00 -0.14994871274E+03  0.14994871274E+03  0.00000000000E+00 0.  1.
        6    2    1    2  501    0 -0.86446839161E+02  0.34952081330E+02  0.33559741356E+02  0.20132024813E+03  0.17523949920E+03 0.  0.
       24    2    3    3    0    0 -0.77568639680E+02 -0.16713796227E+02 -0.31372972039E+02  0.11773476735E+03  0.81123160818E+02 0.  0.
       -6    2    1    2    0  503  0.86446839161E+02 -0.34952081330E+02  0.78604470288E+02  0.21074138900E+03  0.17186787453E+03 0.  0.
      -24    2    5    5    0    0  0.73824591849E+02  0.42918800773E+02  0.49526907880E+02  0.12653456004E+03  0.79157984181E+02 0.  0.
        5    1    3    3  501    0 -0.88781994806E+01  0.51665877558E+02  0.64932713395E+02  0.83585480788E+02  0.47000000000E+01 0. -1.
      -11    1    4    4    0    0 -0.27011198604E+02  0.31227257728E+02  0.85052942830E-01  0.41288663205E+02  0.00000000000E+00 0.  1.
       12    1    4    4    0    0 -0.50557441076E+02 -0.47941053955E+02 -0.31458024982E+02  0.76446104140E+02  0.00000000000E+00 0. -1.
       -5    1    5    5    0  503  0.12622247311E+02 -0.77870882103E+02  0.29077562408E+02  0.84206828953E+02  0.47000000000E+01 0.  1.
        1    1    6    6  502    0  0.40809585298E+02 -0.41184708209E+01  0.55218940419E+02  0.68786011914E+02  0.00000000000E+00 0. -1.
       -2    1    6    6    0  502  0.33015006551E+02  0.47037271594E+02 -0.56920325389E+01  0.57748548129E+02  0.00000000000E+00 0.  1.
</event>
<event>
12   0  0.1523332E-01  0.1868771E+03  0.7957747E-01  0.1167157E+00
       21   -1    0    0  501  503  0.00000000000E+00  0.00000000000E+00  0.30134839288E+03  0.30134839288E+03  0.00000000000E+00 0.  1.
       21   -1    0    0  503  504  0.00000000000E+00  0.00000000000E+00 -0.20702430360E+03  0.20702430360E+03  0.00000000000E+00 0.  1.
        6    2    1    2  501    0 -0.30760684596E+02  0.68976121843E+02  0.22403728963E+03  0.28088956088E+03  0.15166513496E+03 0.  0.
       24    2    3    3    0    0 -0.84136331978E+01 -0.18292698997E+02  0.73333536651E+02  0.10525087220E+03  0.72763496626E+02 0.  0.
       -6    2    1    2    0  504  0.30760684596E+02 -0.68976121843E+02 -0.12971320035E+03  0.22748313560E+03  0.17093606272E+03 0.  0.
      -24    2    5    5    0    0  0.60508085752E+02  0.11700039034E+02 -0.85624951682E+02  0.13073906871E+03  0.77220155279E+02 0.  0.
        5    1    3    3  501    0 -0.22347051399E+02  0.87268820840E+02  0.15070375298E+03  0.17563868868E+03  0.47000000000E+01 0. -1.
      -11    1    4    4    0    0 -0.25115743792E+01 -0.44685323692E+02  0.60660738031E+02  0.75384423442E+02  0.00000000000E+00 0.  1.
       12    1    4    4    0    0 -0.59020588186E+01  0.26392624695E+02  0.12672798620E+02  0.29866448759E+02  0.00000000000E+00 0. -1.
       -5    1    5    5    0  504 -0.29747401156E+02 -0.80676160877E+02 -0.44088248666E+02  0.96744066897E+02  0.47000000000E+01 0.  1.
        1    1    6    6  502    0  0.58276157660E+02 -0.23996347558E+02 -0.53786628435E+02  0.82854913229E+02  0.00000000000E+00 0. -1.
       -2    1    6    6    0  502  0.22319280921E+01  0.35696386592E+02 -0.31838323247E+02  0.47884155479E+02  0.00000000000E+00 0.  1.
</event>
<event>
12   0  0.1523332E-01  0.2579133E+03  0.7957747E-01  0.1115955E+00
       21   -1    0    0  504  503  0.00000000000E+00  0.00000000000E+00  0.26088813818E+03  0.26088813818E+03  0.00000000000E+00 0. -1.
       21   -1    0    0  501  504  0.00000000000E+00  0.00000000000E+00 -0.26148629750E+03  0.26148629750E+03  0.00000000000E+00 0.  1.
        6    2    1    2  501    0  0.74506466815E+01  0.18813815291E+03 -0.48221965307E+02  0.26010109566E+03  0.17284601618E+03 0.  0.
       24    2    3    3    0    0 -0.58257342328E+01  0.20571630751E+03 -0.16028028820E+02  0.22080995982E+03  0.78402820671E+02 0.  0.
       -6    2    1    2    0  503 -0.74506466815E+01 -0.18813815291E+03  0.47623805986E+02  0.26227334002E+03  0.17626060613E+03 0.  0.
      -24    2    5    5    0    0  0.64401754810E+02 -0.11611419539E+03  0.21596942555E+02  0.15715575978E+03  0.81249076980E+02 0.  0.
        5    1    3    3  501    0  0.13276380914E+02 -0.17578154605E+02 -0.32193936487E+02  0.39291135846E+02  0.47000000000E+01 0. -1.
        4    1    4    4  502    0 -0.12221913017E+02  0.11068593686E+03 -0.46690260743E+02  0.12075070279E+03  0.00000000000E+00 0. -1.
       -3    1    4    4    0  502  0.63961787838E+01  0.95030370654E+02  0.30662231923E+02  0.10005925702E+03  0.00000000000E+00 0.  1.
       -5    1    5    5    0  503 -0.71852401491E+02 -0.72023957519E+02  0.26026863431E+02  0.10511758025E+03  0.47000000000E+01 0.  1.
       13    1    6    6    0    0  0.24717308398E+02 -0.14770516904E+02  0.37375989368E+02  0.47181331957E+02  0.00000000000E+00 0. -1.
      -14    1    6    6    0    0  0.39684446412E+02 -0.10134367849E+03 -0.15779046813E+02  0.10997442782E+03  0.00000000000E+00 0.  1.
</event>
<event>
12   0  0.1523332E-01  0.2017244E+03  0.7957747E-01  0.1154586E+00
       -2   -1    0    0    0  501  0.00000000000E+00  0.00000000000E+00  0.44014512050E+02  0.44014512050E+02  0.00000000000E+00 0. -1.
        2   -1    0    0  502    0  0.00000000000E+00  0.00000000000E+00 -0.97550208353E+03  0.97550208353E+03  0.00000000000E+00 0.  1.
        6    2    1    2  502    0  0.10228607909E+03  0.18867257191E+02 -0.34718777512E+03  0.40106700672E+03  0.17174684078E+03 0.  0.
       24    2    3    3    0    0  0.28528411913E+02  0.87269792867E+01 -0.28681115767E+03  0.30509594526E+03  0.99663760695E+02 0.  0.
       -6    2    1    2    0  501 -0.10228607909E+03 -0.18867257191E+02 -0.58429979636E+03  0.61844958885E+03  0.17394029596E+03 0.  0.
      -24    2    5    5    0    0 -0.30702561699E+02 -0.90898999633E+01 -0.11457699402E+03  0.14317977316E+03  0.79669858204E+02 0.  0.
        5    1    3    3  502    0  0.73757667180E+02  0.10140277904E+02 -0.60376617450E+02  0.95971061464E+02  0.47000000000E+01 0. -1.
      -11    1    4    4    0    0 -0.63671782916E+01 -0.32468452522E+02 -0.37516678805E+02  0.50022420544E+02  0.00000000000E+00 0.  1.
       12    1    4    4    0    0  0.34895590204E+02  0.41195431809E+02 -0.24929447887E+03  0.25507352472E+03  0.00000000000E+00 0. -1.
       -5    1    5    5    0  501 -0.71583517394E+02 -0.97773572276E+01 -0.46972280234E+03  0.47526981570E+03  0.47000000000E+01 0.  1.
        1    1    6    6  503    0 -0.26035772529E+02 -0.40684292716E+02 -0.92509073378E+02  0.10435996254E+03  0.00000000000E+00 0. -1.
       -2    1    6    6    0  503 -0.46667891701E+01  0.31594392752E+02 -0.22067920642E+02  0.38819810612E+02  0.00000000000E+00 0.  1.
</event>
<event>
12   0  0.1523332E-01  0.1770972E+03  0.7957747E-01  0.1176161E+00
       21   -1    0    0  504  503  0.00000000000E+00  0.00000000000E+00  0.63526031459E+03  0.63526031459E+03  0.00000000000E+00 0.  1.
       21   -1    0    0  501  504  0.00000000000E+00  0.00000000000E+00 -0.10453155929E+03  0.10453155929E+03  0.00000000000E+00 0.  1.
        6    2    1    2  501    0 -0.10101551562E+01 -0.35400724344E+02 -0.35950275206E+01  0.17713369402E+03  0.17351999780E+03 0.  0.
       24    2    3    3    0    0  0.58641478408E+02  0.58407743321E+01 -0.23172280268E+02  0.10187057274E+03  0.79798003624E+02 0.  0.
       -6    2    1    2    0  503  0.10101551562E+01  0.35400724344E+02  0.53432378282E+03  0.56265817986E+03  0.17270810860E+03 0.  0.
      -24    2    5    5    0    0  0.46257391860E+01 -0.26889021851E+02  0.13280726602E+03  0.15629542542E+03  0.77756499028E+02 0.  0.
        5    1    3    3  501    0 -0.59651633564E+02 -0.41241498676E+02  0.19577252747E+02  0.75263121282E+02  0.47000000000E+01 0. -1.
        4    1    4    4  502    0  0.33953892067E+02  0.26456435125E+02  0.20464406281E+02  0.47661322584E+02  0.00000000000E+00 0. -1.
       -3    1    4    4    0  502  0.24687586341E+02 -0.20615660793E+02 -0.43636686549E+02  0.54209250154E+02  0.00000000000E+00 0.  1.
       -5    1    5    5    0  503 -0.36155840298E+01  0.62289746195E+02  0.40151651681E+03  0.40636275444E+03  0.47000000000E+01 0.  1.
       13    1    6    6    0    0  0.39060680395E+02 -0.12461162116E+02  0.93440004560E+02  0.10203946181E+03  0.00000000000E+00 0. -1.
      -14    1    6    6    0    0 -0.34434941209E+02 -0.14427859735E+02  0.39367261456E+02  0.54255963610E+02  0.00000000000E+00 0.  1.
</event>
<event>
12   0  0.1523332E-01  0.1764690E+03  0.7957747E-01  0.1176761E+00
       21   -1    0    0  504  503  0.00000000000E+00  0.00000000000E+00  0.13627139656E+03  0.13627139656E+03  0.00000000000E+00 0. -1.
       21   -1    0    0  501  504  0.00000000000E+00  0.00000000000E+00 -0.57482686014E+03  0.57482686014E+03  0.00000000000E+00 0. -1.
        6    2    1    2  501    0  0.10006366547E+02  0.25740818363E+02 -0.49680648236E+03  0.52721720799E+03  0.17429453917E+03 0.  0.
       24    2    3    3    0    0  0.21446953504E+02  0.76987843363E+02 -0.40957299227E+03  0.42529117405E+03  0.82069768422E+02 0.  0.
       -6    2    1    2    0  503 -0.10006366547E+02 -0.25740818363E+02  0.58251018779E+02  0.18388104872E+03  0.17221016749E+03 0.  0.
      -24    2    5    5    0    0  0.16531172139E+02 -0.26025776945E+01  0.98469780004E+02  0.13022233186E+03  0.83555401243E+02 0.  0.
        5    1    3    3  501    0 -0.11440586956E+02 -0.51247025001E+02 -0.87233490088E+02  0.10192603394E+03  0.47000000000E+01 0. -1.
        4    1    4    4  502    0  0.30071395659E+02  0.16241896853E+01 -0.55101356255E+02  0.62793998839E+02  0.00000000000E+00 0. -1.
       -3    1    4    4    0  502 -0.86244421555E+01  0.75363653678E+02 -0.35447163601E+03  0.36249717521E+03  0.00000000000E+00 0.  1.
       -5    1    5    5    0  503 -0.26537538687E+02 -0.23138240668E+02 -0.40218761225E+02  0.53658716862E+02  0.47000000000E+01 0.  1.
       13    1    6    6    0    0 -0.24765594399E+02 -0.20064303840E+02  0.14467752443E+02  0.35003240068E+02  0.00000000000E+00 0. -1.
      -14    1    6    6    0    0  0.41296766538E+02  0.17461726146E+02  0.84002027561E+02  0.95219091788E+02  0.00000000000E+00 0.  1.
</event>
<event>
12   0  0.1523332E-01  0.1936831E+03  0.7957747E-01  0.1161241E+00
       21   -1    0    0  501  503  0.00000000000E+00  0.00000000000E+00  0.31101846156E+02  0.31101846156E+02  0.00000000000E+00 0. -1.
       21   -1    0    0  503  504  0.00000000000E+00  0.00000000000E+00 -0.12577880481E+04  0.12577880481E+04  0.00000000000E+00 0. -1.
        6    2    1    2  501    0 -0.15865193635E+02 -0.84559360829E+02 -0.47850783509E+03  0.51621980572E+03  0.17352564565E+03 0.  0.
       24    2    3    3    0    0  0.52975827933E+02 -0.22810040454E+02 -0.28773956105E+03  0.30416630021E+03  0.79977164864E+02 0.  0.
       -6    2    1    2    0  504  0.15865193635E+02  0.84559360829E+02 -0.74817836682E+03  0.77267008850E+03  0.17276054880E+03 0.  0.
      -24    2    5    5    0    0  0.75609313319E+02  0.68626697591E+02 -0.55881271559E+03  0.57340983291E+03  0.78107576382E+02 0.  0.
        5    1    3    3  501    0 -0.68841021567E+02 -0.61749320376E+02 -0.19076827405E+03  0.21205350551E+03  0.47000000000E+01 0. -1.
        4    1    4    4  502    0  0.32408900940E+02 -0.13789060030E+02 -0.32448350271E+02  0.47889147747E+02  0.00000000000E+00 0. -1.
       -3    1    4    4    0  502  0.20566926993E+02 -0.90209804234E+01 -0.25529121078E+03  0.25627715246E+03  0.00000000000E+00 0.  1.
       -5    1    5    5    0  504 -0.59744119684E+02  0.15932663239E+02 -0.18936565122E+03  0.19926025559E+03  0.47000000000E+01 0.  1.
       11    1    6    6    0    0  0.64326684441E+02  0.82924796860E+02 -0.39934667927E+03  0.41290702889E+03  0.00000000000E+00 0. -1.
      -12    1    6    6    0    0  0.11282628878E+02 -0.14298099269E+02 -0.15946603633E+03  0.16050280402E+03  0.00000000000E+00 0.  1.
</event>
<event>
12   0  0.1523332E-01  0.1832891E+03  0.7957747E-01  0.1170389E+00
       21   -1    0    0  504  503  0.00000000000E+00  0.00000000000E+00  0.99402495463E+02  0.99402495463E+02  0.00000000000E+00 0. -1.
       21   -1    0    0  501  504  0.00000000000E+00  0.00000000000E+00 -0.48256106147E+03  0.48256106147E+03  0.00000000000E+00 0. -1.
        6    2    1    2  501    0  0.58457724428E+02  0.73690895183E+01 -0.35176135139E+03  0.39664964897E+03  0.17356061382E+03 0.  0.
       24    2    3    3    0    0  0.36259920311E+02  0.62583684780E+02 -0.28610081188E+03  0.30790963270E+03  0.87881556271E+02 0.  0.
       -6    2    1    2    0  503 -0.58457724428E+02 -0.73690895183E+01 -0.31397214614E+02  0.18531390796E+03  0.17286946050E+03 0.  0.
      -24    2    5    5    0    0 -0.40820144026E+01  0.56094148402E+02 -0.75714144358E+01  0.98284837175E+02  0.80245663904E+02 0.  0.
        5    1    3    3  501    0  0.22197804117E+02 -0.55214595261E+02 -0.65660539513E+02  0.88740016265E+02  0.47000000000E+01 0. -1.
      -11    1    4    4    0    0  0.30716619038E+02  0.23553862546E+01 -0.24367726501E+02  0.39279060889E+02  0.00000000000E+00 0.  1.
       12    1    4    4    0    0  0.55433012732E+01  0.60228298525E+02 -0.26173308538E+03  0.26863057181E+03  0.00000000000E+00 0. -1.
       -5    1    5    5    0  503 -0.54375710025E+02 -0.63463237920E+02 -0.23825800178E+02  0.87029070788E+02  0.47000000000E+01 0.  1.
        1    1    6    6  502    0 -0.15208753517E+02  0.27135718912E+02 -0.41790316433E+02  0.52096871039E+02  0.00000000000E+00 0. -1.
       -2    1    6    6    0  502  0.11126739115E+02  0.28958429490E+02  0.34218901998E+02  0.46187966136E+02  0.00000000000E+00 0.  1.
</event>
<event>
12   0  0.1523332E-01  0.1776065E+03  0.7957747E-01  0.1175676E+00
       -1   -1    0    0    0  501  0.00000000000E+00  0.00000000000E+00  0.85273816354E+02  0.85273816354E+02  0.00000000000E+00 0.  1.
        1   -1    0    0  502    0  0.00000000000E+00  0.00000000000E+00 -0.37617355395E+03  0.37617355395E+03  0.00000000000E+00 0. -1.
        6    2    1    2  502    0  0.26653443349E+02 -0.31003976892E+02 -0.17515478671E+03  0.24939763573E+03  0.17276668885E+03 0.  0.
       24    2    3    3    0    0 -0.69045262284E+01 -0.40554629593E+02 -0.19065525383E+03  0.21093067888E+03  0.80311736475E+02 0.  0.
       -6    2    1    2    0  501 -0.26653443349E+02  0.31003976892E+02 -0.11574495088E+03  0.21204973457E+03  0.17290617008E+03 0.  0.
      -24    2    5    5    0    0 -0.35542407606E+02  0.84245136469E+02 -0.86991546934E+02  0.15071065243E+03  0.82375152574E+02 0.  0.
        5    1    3    3  502    0  0.33557969577E+02  0.95506527007E+01  0.15500467114E+02  0.38466956858E+02  0.47000000000E+01 0. -1.
        4    1    4    4  503    0 -0.22485675586E+02 -0.60604482221E+02 -0.13036203398E+03  0.14550865533E+03  0.00000000000E+00 0. -1.
       -3    1    4    4    0  503  0.15581149358E+02  0.20049852628E+02 -0.60293219845E+02  0.65422023547E+02  0.00000000000E+00 0.  1.
       -5    1    5    5    0  501  0.88889642566E+01 -0.53241159577E+02 -0.28753403949E+02  0.61339082136E+02  0.47000000000E+01 0.  1.
       11    1    6    6    0    0 -0.59238986817E+02  0.59441581346E+02 -0.79501733159E+02  0.11559880937E+03  0.00000000000E+00 0. -1.
      -12    1    6    6    0    0  0.23696579211E+02  0.24803555123E+02 -0.74898137751E+01  0.35111843065E+02  0.00000000000E+00 0.  1.
</event>
<event>
12   0  0.1523332E-01  0.2138334E+03  0.7957747E-01  0.1145181E+00
       21   -1    0    0  504  503  0.00000000000E+00  0.00000000000E+00  0.30721257951E+03  0.30721257951E+03  0.00000000000E+00 0.  1.
       21   -1    0    0  501  504  0.00000000000E+00  0.00000000000E+00 -0.28306578005E+03  0.28306578005E+03  0.00000000000E+00 0. -1.
        6    2    1    2  501    0 -0.96803862187E+01  0.12117807581E+03 -0.19262587128E+03  0.28578679975E+03  0.17260223838E+03 0.  0.
       24    2    3    3    0    0 -0.26691575302E+02  0.10573464779E+03 -0.55121958489E+02  0.14629738777E+03  0.80450229484E+02 0.  0.
       -6    2    1    2    0  503  0.96803862187E+01 -0.12117807581E+03  0.21677267074E+03  0.30449155981E+03  0.17591726260E+03 0.  0.
      -24    2    5    5    0    0 -0.57705886654E+01 -0.39281609031E+00  0.12677720961E+03  0.15300200699E+03  0.85461683040E+02 0.  0.
        5    1    3    3  501    0  0.17011189083E+02  0.15443428013E+02 -0.13750391279E+03  0.13948941198E+03  0.47000000000E+01 0. -1.
      -13    1    4    4    0    0 -0.25089987816E+02 -0.40993707885E+01 -0.13877715842E+02  0.28963827898E+02  0.00000000000E+00 0.  1.
       14    1    4    4    0    0 -0.16015874853E+01  0.10983401858E+03 -0.41244242646E+02  0.11733355987E+03  0.00000000000E+00 0. -1.
       -5    1    5    5    0  503  0.15450974884E+02 -0.12078525972E+03  0.89995461127E+02  0.15148955282E+03  0.47000000000E+01 0.  1.
        1    1    6    6  502    0  0.38245762134E+02  0.10103958100E+02  0.48499455003E+02  0.62586144042E+02  0.00000000000E+00 0. -1.
       -2    1    6    6    0  502 -0.44016350799E+02 -0.10496774190E+02  0.78277754606E+02  0.90415862945E+02  0.00000000000E+00 0.  1.
</event>
<event>
12   0  0.1523332E-01  0.1905785E+03  0.7957747E-01  0.1163906E+00
       21   -1    0    0  501  503  0.00000000000E+00  0.00000000000E+00  0.41819121052E+03  0.41819121052E+03  0.00000000000E+00 0. -1.
       21   -1    0    0  503  504  0.00000000000E+00  0.00000000000E+00 -0.27283999883E+03  0.27283999883E+03  0.00000000000E+00 0. -1.
        6    2    1    2  501    0  0.35077765054E+02 -0.68230215426E+02  0.35859092921E+03  0.40608818617E+03  0.17445443113E+03 0.  0.
       24    2    3    3    0    0  0.79984313140E+02 -0.47926887384E+02  0.15870983107E+03  0.20016740872E+03  0.78636531936E+02 0.  0.
       -6    2    1    2    0  504 -0.35077765054E+02  0.68230215426E+02 -0.21323971753E+03  0.28494302317E+03  0.17272966574E+03 0.  0.
      -24    2    5    5    0    0 -0.86237554997E+02  0.60912630244E+02 -0.12440725111E+03  0.18206363627E+03  0.80763476321E+02 0.  0.
        5    1    3    3  501    0 -0.44906548086E+02 -0.20303328042E+02  0.19988109814E+03  0.20592077745E+03  0.47000000000E+01 0. -1.
      -11    1    4    4    0    0  0.72941866294E+02 -0.64924404086E+02  0.15183594350E+03  0.18052658486E+03  0.00000000000E+00 0.  1.
       12    1    4    4    0    0  0.70424468459E+01  0.16997516702E+02  0.68738875690E+01  0.19640823860E+02  0.00000000000E+00 0. -1.
       -5    1    5    5    0  504  0.51159789943E+02  0.73175851819E+01 -0.88832466424E+02  0.10287938691E+03  0.47000000000E+01 0.  1.
        1    1    6    6  502    0 -0.21381652902E+02 -0.18521249474E+02 -0.14656008357E+02  0.31859226981E+02  0.00000000000E+00 0. -1.
       -2    1    6    6    0  502 -0.64855902095E+02  0.79433879717E+02 -0.10975124275E+03  0.15020440928E+03  0.00000000000E+00 0.  1.
</event>
<event>
12   0  0.1523332E-01  0.1832118E+03  0.7957747E-01  0.1170459E+00
       21   -1    0    0  504  503  0.00000000000E+00  0.00000000000E+00  0.79115267397E+02  0.79115267397E+02  0.00000000000E+00 0. -1.
       21   -1    0    0  501  504  0.00000000000E+00  0.00000000000E+00 -0.77174955925E+03  0.77174955925E+03  0.00000000000E+00 0. -1.
        6    2    1    2  501    0 -0.60536318521E+02  0.33951105415E+02 -0.63246081546E+03  0.65802442353E+03  0.16784557023E+03 0.  0.
       24    2    3    3    0    0  0.11364319272E+02  0.43421173556E+02 -0.21020144331E+03  0.22955686201E+03  0.80604962992E+02 0.  0.
       -6    2    1    2    0  503  0.60536318521E+02 -0.33951105415E+02 -0.60173476389E+02  0.19284040312E+03  0.16955603910E+03 0.  0.
      -24    2    5    5    0    0  0.66948705935E+02 -0.78150614447E+02 -0.64984941330E+02  0.14767453652E+03  0.83636585121E+02 0.  0.
        5    1    3    3  501    0 -0.71900637793E+02 -0.94700681409E+01 -0.42225937215E+03  0.42846756152E+03  0.47000000000E+01 0. -1.
      -13    1    4    4    0    0 -0.71605543357E+01  0.79074037311E+01  0.41860459927E+01  0.11459648913E+02  0.00000000000E+00 0.  1.
       14    1    4    4    0    0  0.18524873607E+02  0.35513769825E+02 -0.21438748930E+03  0.21809721309E+03  0.00000000000E+00 0. -1.
       -5    1    5    5    0  503 -0.64123874146E+01  0.44199509032E+02  0.48114649411E+01  0.45165866602E+02  0.47000000000E+01 0.  1.
        1    1    6    6  502    0  0.37125704756E+01 -0.56015010379E+02 -0.27097521743E+01  0.56203267914E+02  0.00000000000E+00 0. -1.
       -2    1    6    6    0  502  0.63236135460E+02 -0.22135604068E+02 -0.62275189156E+02  0.91471268602E+02  0.00000000000E+00 0.  1.
</event>
<event>
12   0  0.1523332E-01  0.2782496E+03  0.7957747E-01  0.1104540E+00
       -2   -1    0    0    0  501  0.00000000000E+00  0.00000000000E+00  0.22139422707E+03  0.22139422707E+03  0.00000000000E+00 0. -1.
        2   -1    0    0  502    0  0.00000000000E+00  0.00000000000E+00 -0.48500281743E+03  0.48500281743E+03  0.00000000000E+00 0.  1.
        6    2    1    2  502    0 -0.19759993866E+03  0.92836918159E+02 -0.31823936018E+03  0.42251133789E+03  0.17197415837E+03 0.  0.
       24    2    3    3    0    0 -0.11267749620E+03 -0.14305596358E+02 -0.13424735944E+03  0.19323751473E+03  0.80109396114E+02 0.  0.
       -6    2    1    2    0  501  0.19759993866E+03 -0.92836918159E+02  0.54630769822E+02  0.28388570661E+03  0.17303798506E+03 0.  0.
      -24    2    5    5    0    0  0.13963320986E+03 -0.98098963041E+02 -0.19065911499E+02  0.18985846799E+03  0.81005487721E+02 0.  0.
        5    1    3    3  502    0 -0.84922442462E+02  0.10714251452E+03 -0.18399200074E+03  0.22927382316E+03  0.47000000000E+01 0. -1.
      -13    1    4    4    0    0 -0.67890095750E+02  0.31478513392E+02 -0.68495012106E+02  0.10144717142E+03  0.00000000000E+00 0.  1.
       14    1    4    4    0    0 -0.44787400449E+02 -0.45784109750E+02 -0.65752347333E+02  0.91790343307E+02  0.00000000000E+00 0. -1.
       -5    1    5    5    0  501  0.57966728804E+02  0.52620448819E+01  0.73696681321E+02  0.94027238619E+02  0.47000000000E+01 0.  1.
        3    1    6    6  503    0  0.14192692364E+03 -0.74407711251E+02 -0.31019127155E+02  0.16322360552E+03  0.00000000000E+00 0. -1.
       -4    1    6    6    0  503 -0.22937137866E+01 -0.23691251790E+02  0.11953215657E+02  0.26634862471E+02  0.00000000000E+00 0.  1.
</event>
<event>
12   0  0.1523332E-01  0.2052658E+03  0.7957747E-01  0.1151762E+00
       21   -1    0    0  504  503  0.00000000000E+00  0.00000000000E+00  0.18355485341E+03  0.18355485341E+03  0.00000000000E+00 0.  1.
       21   -1    0    0  501  504  0.00000000000E+00  0.00000000000E+00 -0.26676803786E+03  0.26676803786E+03  0.00000000000E+00 0. -1.
        6    2    1    2  501    0 -0.70104996290E+02 -0.60055946300E+02 -0.13569969236E+03  0.23845296672E+03  0.17298550124E+03 0.  0.
       24    2    3    3    0    0  0.52742126924E+01 -0.32569418018E+02 -0.77934993211E+01  0.87391328301E+02  0.80547633864E+02 0.  0.
       -6    2    1    2    0  503  0.70104996290E+02  0.60055946300E+02  0.52486507907E+02  0.21186992454E+03  0.18333740541E+03 0.  0.
      -24    2    5    5    0    0  0.44821400858E+02 -0.19436954803E+02  0.80320550840E+02  0.12380628012E+03  0.80559610986E+02 0.  0.
        5    1    3    3  501    0 -0.75379208983E+02 -0.27486528282E+02 -0.12790619304E+03  0.15106163842E+03  0.47000000000E+01 0. -1.
        2    1    4    4  502    0  0.42919704990E+02 -0.14777034459E+02 -0.48036234192E+01  0.45645773317E+02  0.00000000000E+00 0. -1.
       -1    1    4    4    0  502 -0.37645492297E+02 -0.17792383559E+02 -0.29898759018E+01  0.41745554984E+02  0.00000000000E+00 0.  1.
       -5    1    5    5    0  503  0.25283595432E+02  0.79492901103E+02 -0.27834042933E+02  0.88063644427E+02  0.47000000000E+01 0.  1.
       11    1    6    6    0    0 -0.65152583944E+01  0.16990439252E+02 -0.39504572905E+01  0.18620680189E+02  0.00000000000E+00 0. -1.
      -12    1    6    6    0    0  0.51336659253E+02 -0.36427394055E+02  0.84271008131E+02  0.10518559993E+03  0.00000000000E+00 0.  1.
</event>
<event>
12   0  0.1523332E-01  0.2617709E+03  0.7957747E-01  0.1113703E+00
       -1   -1    0    0    0  501  0.00000000000E+00  0.00000000000E+00  0.90859145353E+02  0.90859145353E+02  0.00000000000E+00 0. -1.
        1   -1    0    0  502    0  0.00000000000E+00  0.00000000000E+00 -0.83133438106E+03  0.83133438106E+03  0.00000000000E+00 0.  1.
        6    2    1    2  502    0 -0.18373861168E+03 -0.70555267344E+02 -0.50964021086E+03  0.57256021581E+03  0.17133047899E+03 0.  0.
       24    2    3    3    0    0 -0.14501120617E+03 -0.11660877749E+01 -0.23814056729E+03  0.28963122006E+03  0.78394541694E+02 0.  0.
       -6    2    1    2    0  501  0.18373861168E+03  0.70555267344E+02 -0.23083502485E+03  0.34963331061E+03  0.17384107690E+03 0.  0.
      -24    2    5    5    0    0  0.41915476960E+02  0.16677059636E+02 -0.28877432453E+02  0.96995977791E+02  0.80865827613E+02 0.  0.
        5    1    3    3  502    0 -0.38727405510E+02 -0.69389179569E+02 -0.27149964356E+03  0.28292899575E+03  0.47000000000E+01 0. -1.
        4    1    4    4  503    0 -0.10696768464E+03 -0.34083616807E+02 -0.14098724021E+03  0.18022536002E+03  0.00000000000E+00 0. -1.
       -3    1    4    4    0  503 -0.38043521526E+02  0.32917529032E+02 -0.97153327081E+02  0.10940586004E+03  0.00000000000E+00 0.  1.
       -5    1    5    5    0  501  0.14182313472E+03  0.53878207708E+02 -0.20195759240E+03  0.25263733282E+03  0.47000000000E+01 0.  1.
       13    1    6    6    0    0  0.18330004717E+02  0.49004392269E+02 -0.12748092113E+02  0.53851029582E+02  0.00000000000E+00 0. -1.
      -14    1    6    6    0    0  0.23585472243E+02 -0.32327332633E+02 -0.16129340341E+02  0.43144948209E+02  0.00000000000E+00 0.  1.
</event>
<event>
12   0  0.1523332E-01  0.2241312E+03  0.7957747E-01  0.1137704E+00
        2   -1    0    0  502    0  0.00000000000E+00  0.00000000000E+00  0.53822544361E+03  0.53822544361E+03  0.00000000000E+00 0.  1.
       -2   -1    0    0    0  501  0.00000000000E+00  0.00000000000E+00 -0.13166581872E+03  0.13166581872E+03  0.00000000000E+00 0. -1.
        6    2    1    2  502    0  0.32884129640E+02 -0.13945629522E+03  0.38454455377E+03  0.44552243368E+03  0.17345403085E+03 0.  0.
       24    2    3    3    0    0  0.74632128962E+02 -0.11384229194E+03  0.20342541002E+03  0.25783863884E+03  0.81048406090E+02 0.  0.
       -6    2    1    2    0  501 -0.32884129640E+02  0.13945629522E+03  0.22015071115E+02  0.22436882864E+03  0.17125210554E+03 0.  0.
      -24    2    5    5    0    0 -0.36154270519E+02  0.16944365190E+03  0.30807564438E+02  0.19259882203E+03  0.78274630472E+02 0.  0.
        5    1    3    3  502    0 -0.41747999322E+02 -0.25614003284E+02  0.18111914376E+03  0.18768379484E+03  0.47000000000E+01 0. -1.
      -13    1    4    4    0    0  0.16517755527E+02 -0.13364461586E+02  0.10044501075E+03  0.10266764469E+03  0.00000000000E+00 0.  1.
       14    1    4    4    0    0  0.58114373435E+02 -0.10047783035E+03  0.10298039927E+03  0.15517099415E+03  0.00000000000E+00 0. -1.
       -5    1    5    5    0  501  0.32701408798E+01 -0.29987356673E+02 -0.87924933231E+01  0.31770006617E+02  0.47000000000E+01 0.  1.
        3    1    6    6  503    0 -0.61029940641E+02  0.11277464140E+03  0.20469147690E+02  0.12985283749E+03  0.00000000000E+00 0. -1.
       -4    1    6    6    0  503  0.24875670122E+02  0.56669010497E+02  0.10338416748E+02  0.62745984537E+02  0.00000000000E+00 0.  1.
</event>
<event>
12   0  0.1523332E-01  0.2491465E+03  0.7957747E-01  0.1121235E+00
       21   -1    0    0  501  503  0.00000000000E+00  0.00000000000E+00  0.81077024574E+03  0.81077024574E+03  0.00000000000E+00 0. -1.
       21   -1    0    0  503  504  0.00000000000E+00  0.00000000000E+00 -0.19177563130E+03  0.19177563130E+03  0.00000000000E+00 0. -1.
        6    2    1    2  501    0  0.10520058166E+03 -0.14404267248E+03  0.69836695896E+03  0.74106179834E+03  0.17216482136E+03 0.  0.
       24    2    3    3    0    0  0.52693104463E+02 -0.51198316935E+02  0.15746455639E+03  0.18972287479E+03  0.76169887643E+02 0.  0.
       -6    2    1    2    0  504 -0.10520058166E+03  0.14404267248E+03 -0.79372344520E+02  0.26148407870E+03  0.17394970670E+03 0.  0.
      -24    2    5    5    0    0 -0.13538753121E+03  0.14882306026E+03 -0.58661420566E+02  0.22426665803E+03  0.79851642237E+02 0.  0.
        5    1    3    3  501    0  0.52507477201E+02 -0.92844355543E+02  0.54090240256E+03  0.55133892355E+03  0.47000000000E+01 0. -1.
      -11    1    4    4    0    0 -0.12727364721E+02 -0.49114516667E+00  0.10775396314E+01  0.12782336562E+02  0.00000000000E+00 0.  1.
       12    1    4    4    0    0  0.65420469184E+02 -0.50707171768E+02  0.15638701676E+03  0.17694053823E+03  0.00000000000E+00 0. -1.
       -5    1    5    5    0  504  0.30186949546E+02 -0.47803877847E+01 -0.20710923954E+02  0.37217420670E+02  0.47000000000E+01 0.  1.
        1    1    6    6  502    0 -0.33533993379E+02  0.95164836565E+02 -0.34499010625E+02  0.10663515633E+03  0.00000000000E+00 0. -1.
       -2    1    6    6    0  502 -0.10185353783E+03  0.53658223697E+02 -0.24162409941E+02  0.11763150170E+03  0.00000000000E+00 0.  1.
</event>
<event>
12   0  0.1523332E-01  0.2347394E+03  0.7957747E-01  0.1130447E+00
        2   -1    0    0  502    0  0.00000000000E+00  0.00000000000E+00  0.22226286230E+04  0.22226286230E+04  0.00000000000E+00 0. -1.
       -2   -1    0    0    0  501  0.00000000000E+00  0.00000000000E+00 -0.39191604455E+02  0.39191604455E+02  0.00000000000E+00 0.  1.
        6    2    1    2  502    0  0.61743489368E+01 -0.15806094846E+03  0.17756009214E+04  0.17909782717E+04  0.17269380851E+03 0.  0.
       24    2    3    3    0    0  0.12581272041E+02 -0.80961489665E+02  0.15078710731E+04  0.15122548660E+04  0.80787098959E+02 0.  0.
       -6    2    1    2    0  501 -0.61743489368E+01  0.15806094846E+03  0.40783609713E+03  0.47084195578E+03  0.17418518646E+03 0.  0.
      -24    2    5    5    0    0  0.14566684916E+02  0.21036739410E+02  0.76422916204E+02  0.11158910493E+03  0.77181173238E+02 0.  0.
        5    1    3    3  502    0 -0.64069231038E+01 -0.77099458792E+02  0.26772984828E+03  0.27872340567E+03  0.47000000000E+01 0. -1.
        4    1    4    4  503    0 -0.27542850163E+02 -0.63261479535E+02  0.10594795613E+04  0.10617238644E+04  0.00000000000E+00 0. -1.
       -3    1    4    4    0  503  0.40124122203E+02 -0.17700010130E+02  0.44839151185E+03  0.45053100164E+03  0.00000000000E+00 0.  1.
       -5    1    5    5    0  501 -0.20741033852E+02  0.13702420905E+03  0.33141318093E+03  0.35925285085E+03  0.47000000000E+01 0.  1.
       13    1    6    6    0    0  0.28713413554E+02  0.30774456950E+02  0.10381226202E+02  0.43350861305E+02  0.00000000000E+00 0. -1.
      -14    1    6    6    0    0 -0.14146728638E+02 -0.97377175399E+01  0.66041690002E+02  0.68238243620E+02  0.00000000000E+00 0.  1.
</event>
<event>
12   0  0.1523332E-01  0.3661840E+03  0.7957747E-01  0.1065118E+00
       -1   -1    0    0    0  501  0.00000000000E+00  0.00000000000E+00  0.22595663248E+03  0.22595663248E+03  0.00000000000E+00 0. -1.
        1   -1    0    0  502    0  0.00000000000E+00  0.00000000000E+00 -0.59460887680E+03  0.59460887680E+03  0.00000000000E+00 0.  1.
        6    2    1    2  502    0  0.13223850391E+03 -0.29425713728E+03 -0.20253029045E+03  0.41842647991E+03  0.17317019312E+03 0.  0.
       24    2    3    3    0    0  0.15830056909E+03 -0.25786590831E+03 -0.20303262385E+03  0.37341653516E+03  0.81631890501E+02 0.  0.
       -6    2    1    2    0  501 -0.13223850391E+03  0.29425713728E+03 -0.16612195386E+03  0.40213902938E+03  0.17333496658E+03 0.  0.
      -24    2    5    5    0    0 -0.10608561968E+03  0.26085729445E+03 -0.76336971574E+02  0.30272597239E+03  0.80715514991E+02 0.  0.
        5    1    3    3  502    0 -0.26062065176E+02 -0.36391228970E+02  0.50233339602E+00  0.45009944746E+02  0.47000000000E+01 0. -1.
      -11    1    4    4    0    0  0.11376792887E+03 -0.11132992956E+03 -0.88076926468E+02  0.18192042170E+03  0.00000000000E+00 0.  1.
       12    1    4    4    0    0  0.44532640217E+02 -0.14653597874E+03 -0.11495569738E+03  0.19149611346E+03  0.00000000000E+00 0. -1.
       -5    1    5    5    0  501 -0.26152884235E+02  0.33399842822E+02 -0.89784982290E+02  0.99413056985E+02  0.47000000000E+01 0.  1.
        1    1    6    6  503    0 -0.31054364669E+02  0.15843648343E+02  0.15757403268E+01  0.34898104754E+02  0.00000000000E+00 0. -1.
       -2    1    6    6    0  503 -0.75031255006E+02  0.24501364611E+03 -0.77912711901E+02  0.26782786764E+03  0.00000000000E+00 0.  1.
</event>
<event>
12   0  0.1523332E-01  0.3795292E+03  0.7957747E-01  0.1060186E+00
       21   -1    0    0  504  503  0.00000000000E+00  0.00000000000E+00  0.30880314756E+03  0.30880314756E+03  0.00000000000E+00 0.  1.
       21   -1    0    0  501  504  0.00000000000E+00  0.00000000000E+00 -0.46811827206E+03  0.46811827206E+03  0.00000000000E+00 0. -1.
        6    2    1    2  501    0  0.32413037379E+03 -0.98335678368E+02 -0.10984305396E+03  0.39510491897E+03  0.17120746373E+03 0.  0.
       24    2    3    3    0    0  0.23375650530E+03 -0.82618976366E+02 -0.14126549147E+02  0.26244674876E+03  0.84916061617E+02 0.  0.
       -6    2    1    2    0  503 -0.32413037379E+03  0.98335678368E+02 -0.49472070537E+02  0.38181650065E+03  0.16913293456E+03 0.  0.
      -24    2    5    5    0    0 -0.16152508581E+03  0.33054189884E+02 -0.87256984645E+02  0.20250687416E+03  0.78818271348E+02 0.  0.
        5    1    3    3  501    0  0.90373868489E+02 -0.15716702002E+02 -0.95716504816E+02  0.13265817020E+03  0.47000000000E+01 0. -1.
      -13    1    4    4    0    0  0.57467326918E+02 -0.48758476521E+02  0.23679122786E+02  0.78997364207E+02  0.00000000000E+00 0.  1.
       14    1    4    4    0    0  0.17628917838E+03 -0.33860499845E+02 -0.37805671933E+02  0.18344938456E+03  0.00000000000E+00 0. -1.
       -5    1    5    5    0  503 -0.16260528797E+03  0.65281488485E+02  0.37784914108E+02  0.17930962648E+03  0.47000000000E+01 0.  1.
        3    1    6    6  502    0 -0.86831963412E+02  0.57022840532E+02 -0.56460705121E+02  0.11823368993E+03  0.00000000000E+00 0. -1.
       -4    1    6    6    0  502 -0.74693122402E+02 -0.23968650648E+02 -0.30796279524E+02  0.84273184232E+02  0.00000000000E+00 0.  1.
</event>
<event>
12   0  0.1523332E-01  0.2231365E+03  0.7957747E-01  0.1138407E+00
       21   -1    0    0  501  503  0.00000000000E+00  0.00000000000E+00  0.11326181498E+03  0.11326181498E+03  0.00000000000E+00 0. -1.
       21   -1    0    0  503  504  0.00000000000E+00  0.00000000000E+00 -0.43312809861E+03  0.43312809861E+03  0.00000000000E+00 0.  1.
        6    2    1    2  501    0  0.71914722730E+02 -0.11055252613E+03 -0.17600902267E+03  0.28090012891E+03  0.17473442129E+03 0.  0.
       24    2    3    3    0    0  0.73222826772E+02 -0.84800559037E+02 -0.41601954983E+02  0.14396136599E+03  0.80258551362E+02 0.  0.
       -6    2    1    2    0  504 -0.71914722730E+02  0.11055252613E+03 -0.14385726096E+03  0.26548978467E+03  0.17998979376E+03 0.  0.
      -24    2    5    5    0    0  0.63025402296E+01 -0.45822387563E+01 -0.68038009922E+02  0.10691928572E+03  0.82108732421E+02 0.  0.
        5    1    3    3  501    0 -0.13081040413E+01 -0.25751967093E+02 -0.13440706769E+03  0.13693876292E+03  0.47000000000E+01 0. -1.
      -11    1    4    4    0    0  0.41423407732E+02 -0.13540344679E+02 -0.49002122328E+02  0.65577798338E+02  0.00000000000E+00 0.  1.
       12    1    4    4    0    0  0.31799419039E+02 -0.71260214358E+02  0.74001673451E+01  0.78383567655E+02  0.00000000000E+00 0. -1.
       -5    1    5    5    0  504 -0.78217262960E+02  0.11513476489E+03 -0.75819251035E+02  0.15857049895E+03  0.47000000000E+01 0.  1.
        3    1    6    6  502    0  0.29592970330E+00 -0.31955820442E+02  0.14528235036E+01  0.31990197415E+02  0.00000000000E+00 0. -1.
       -4    1    6    6    0  502  0.60066105263E+01  0.27373581686E+02 -0.69490833426E+02  0.74929088307E+02  0.00000000000E+00 0.  1.
</event>
<event>
12   0  0.1523332E-01  0.1780219E+03  0.7957747E-01  0.1175282E+00
       -2   -1    0    0    0  501  0.00000000000E+00  0.00000000000E+00  0.23139519835E+02  0.23139519835E+02  0.00000000000E+00 0. -1.
        2   -1    0    0  502    0  0.00000000000E+00  0.00000000000E+00 -0.14935467352E+04  0.14935467352E+04  0.00000000000E+00 0.  1.
        6    2    1    2  502    0 -0.26678300637E+02  0.26543966422E+02 -0.95647831439E+03  0.97304168136E+03  0.17476565420E+03 0.  0.
       24    2    3    3    0    0  0.31417707389E+02  0.51476444348E+02 -0.76694265969E+03  0.77318516031E+03  0.77313337848E+02 0.  0.
       -6    2    1    2    0  501  0.26678300637E+02 -0.26543966422E+02 -0.51392890097E+03  0.54364457367E+03  0.17323450392E+03 0.  0.
      -24    2    5    5    0    0  0.57392783699E+02  0.49691104715E+01 -0.47402823866E+03  0.48405760917E+03  0.79311879764E+02 0.  0.
        5    1    3    3  502    0 -0.58096008026E+02 -0.24932477926E+02 -0.18953565470E+03  0.19985652105E+03  0.47000000000E+01 0. -1.
      -13    1    4    4    0    0  0.16175725125E+02  0.49450576806E+02 -0.22160660523E+03  0.22763238151E+03  0.00000000000E+00 0.  1.
       14    1    4    4    0    0  0.15241982264E+02  0.20258675415E+01 -0.54533605446E+03  0.54555277880E+03  0.00000000000E+00 0. -1.
       -5    1    5    5    0  501 -0.30714483063E+02 -0.31513076893E+02 -0.39900662309E+02  0.59586964495E+02  0.47000000000E+01 0.  1.
        3    1    6    6  503    0  0.29356853070E+02 -0.17696634605E+02 -0.65369599829E+02  0.73811789575E+02  0.00000000000E+00 0. -1.
       -4    1    6    6    0  503  0.28035930629E+02  0.22665745077E+02 -0.40865863883E+03  0.41024581960E+03  0.00000000000E+00 0.  1.
</event>
<event>
12   0  0.1523332E-01  0.1792528E+03  0.7957747E-01  0.1174122E+00
       21   -1    0    0  504  503  0.00000000000E+00  0.00000000000E+00  0.37419031591E+03  0.37419031591E+03  0.00000000000E+00 0. -1.
       21   -1    0    0  501  504  0.00000000000E+00  0.00000000000E+00 -0.85321913182E+02  0.85321913182E+02  0.00000000000E+00 0. -1.
        6    2    1    2  501    0 -0.42902394654E+02  0.13915811545E+02  0.14568357065E+03  0.23009235145E+03  0.17229196778E+03 0.  0.
       24    2    3    3    0    0 -0.84280601368E+02  0.46170189806E+02  0.10148949550E+03  0.16133402696E+03  0.80583151875E+02 0.  0.
       -6    2    1    2    0  503  0.42902394654E+02 -0.13915811545E+02  0.14318483207E+03  0.22941987763E+03  0.17348578858E+03 0.  0.
      -24    2    5    5    0    0  0.33749816937E+02  0.54156127679E+02  0.59454571115E+02  0.12102059171E+03  0.83899948056E+02 0.  0.
        5    1    3    3  501    0  0.41378206714E+02 -0.32254378261E+02  0.44194075159E+02  0.68758324493E+02  0.47000000000E+01 0. -1.
        4    1    4    4  502    0 -0.30729037054E+02  0.43900959104E+02  0.92620981635E+02  0.10700567353E+03  0.00000000000E+00 0. -1.
       -3    1    4    4    0  502 -0.53551564314E+02  0.22692307019E+01  0.88685138598E+01  0.54328353431E+02  0.00000000000E+00 0.  1.
       -5    1    5    5    0  503  0.91525777171E+01 -0.68071939224E+02  0.83730260953E+02  0.10839928592E+03  0.47000000000E+01 0.  1.
       11    1    6    6    0    0 -0.24321188720E+02  0.37225923831E+01  0.13782710906E+01  0.24643001969E+02  0.00000000000E+00 0. -1.
      -12    1    6    6    0    0  0.58071005657E+02  0.50433535296E+02  0.58076300025E+02  0.96377589745E+02  0.00000000000E+00 0.  1.
</event>
<event>
12   0  0.1523332E-01  0.1738421E+03  0.7957747E-01  0.1179301E+00
       21   -1    0    0  504  503  0.00000000000E+00  0.00000000000E+00  0.30099800974E+03  0.30099800974E+03  0.00000000000E+00 0.  1.
       21   -1    0    0  501  504  0.00000000000E+00  0.00000000000E+00 -0.10146071815E+03  0.10146071815E+03  0.00000000000E+00 0.  1.
        6    2    1    2  501    0 -0.12224121331E+02  0.27955101308E+01  0.12595434846E+03  0.21467553502E+03  0.17338928289E+03 0.  0.
       24    2    3    3    0    0 -0.55712371822E+02  0.34859751584E+02  0.12264942183E+03  0.16033994769E+03  0.79667731829E+02 0.  0.
       -6    2    1    2    0  503  0.12224121331E+02 -0.27955101308E+01  0.73582943123E+02  0.18778319286E+03  0.17231028403E+03 0.  0.
      -24    2    5    5    0    0 -0.53982635479E+02  0.31784696372E+02  0.32088169200E+02  0.10220847936E+03  0.74111610377E+02 0.  0.
        5    1    3    3  501    0  0.43488250491E+02 -0.32064241453E+02  0.33049266314E+01  0.54335587332E+02  0.47000000000E+01 0. -1.
        4    1    4    4  502    0 -0.18280844941E+02  0.14044008947E+02 -0.67629906062E+01  0.24024186168E+02  0.00000000000E+00 0. -1.
       -3    1    4    4    0  502 -0.37431526881E+02  0.20815742636E+02  0.12941241244E+03  0.13631576152E+03  0.00000000000E+00 0.  1.
       -5    1    5    5    0  503  0.66206756811E+02 -0.34580206503E+02  0.41494773922E+02  0.85574713508E+02  0.47000000000E+01 0.  1.
       13    1    6    6    0    0 -0.28827460359E+02  0.13482603053E+02  0.55020068090E+02  0.63561080454E+02  0.00000000000E+00 0. -1.
      -14    1    6    6    0    0 -0.25155175120E+02  0.18302093319E+02 -0.22931898889E+02  0.38647398902E+02  0.00000000000E+00 0.  1.
</event>
<event>
12   0  0.1523332E-01  0.2509214E+03  0.7957747E-01  0.1120147E+00
       21   -1    0    0  501  503  0.00000000000E+00  0.00000000000E+00  0.28060677527E+03  0.28060677527E+03  0.00000000000E+00 0.  1.
       21   -1    0    0  503  504  0.00000000000E+00  0.00000000000E+00 -0.28797865034E+03  0.28797865034E+03  0.00000000000E+00 0. -1.
        6    2    1    2  501    0  0.14643475724E+03 -0.10530264125E+03  0.13195762288E+03  0.28157624062E+03  0.17129092405E+03 0.  0.
       24    2    3    3    0    0  0.28674211341E+02 -0.57727765299E+02  0.11279121267E+03  0.15304470257E+03  0.80908083942E+02 0.  0.
       -6    2    1    2    0  504 -0.14643475724E+03  0.10530264125E+03 -0.13932949795E+03  0.28700918499E+03  0.17444133366E+03 0.  0.
      -24    2    5    5    0    0 -0.16863863408E+03  0.10249017289E+03 -0.15090078153E+03  0.26137899326E+03  0.81269353434E+02 0.  0.
        5    1    3    3  501    0  0.11776054590E+03 -0.47574875946E+02  0.19166410211E+02  0.12853153804E+03  0.47000000000E+01 0. -1.
      -13    1    4    4    0    0 -0.25484675901E+01  0.15816849787E+02  0.46643565153E+02  0.49318248088E+02  0.00000000000E+00 0.  1.
       14    1    4    4    0    0  0.31222678931E+02 -0.73544615086E+02  0.66147647517E+02  0.10372645448E+03  0.00000000000E+00 0. -1.
       -5    1    5    5    0  504  0.22203876836E+02  0.28124683551E+01  0.11571283575E+02  0.25630191735E+02  0.47000000000E+01 0.  1.
        3    1    6    6  502    0 -0.13389812166E+03  0.91674483507E+02 -0.15544234185E+03  0.22471145843E+03  0.00000000000E+00 0. -1.
       -4    1    6    6    0  502 -0.34740512418E+02  0.10815689383E+02  0.45415603252E+01  0.36667534824E+02  0.00000000000E+00 0.  1.
</event>
<event>
12   0  0.1523332E-01  0.1982180E+03  0.7957747E-01  0.1157446E+00
       21   -1    0    0  501  503  0.00000000000E+00  0.00000000000E+00  0.29124260266E+03  0.29124260266E+03  0.00000000000E+00 0.  1.
       21   -1    0    0  503  504  0.00000000000E+00  0.00000000000E+00 -0.33656122555E+03  0.33656122555E+03  0.00000000000E+00 0.  1.
        6    2    1    2  501    0  0.51552933067E+02 -0.81773782821E+02  0.22037391540E+03  0.29640352274E+03  0.17304834366E+03 0.  0.
       24    2    3    3    0    0  0.96905364000E+01 -0.11836425357E+03  0.16031359291E+03  0.21442392076E+03  0.78569502382E+02 0.  0.
       -6    2    1    2    0  504 -0.51552933067E+02  0.81773782821E+02 -0.26569253829E+03  0.33140030547E+03  0.17288429975E+03 0.  0.
      -24    2    5    5    0    0 -0.24714098888E+02 -0.22659619305E+02 -0.10300872660E+03  0.13617025889E+03  0.82506342917E+02 0.  0.
        5    1    3    3  501    0  0.41862396667E+02  0.36590470747E+02  0.60060322483E+02  0.81979601981E+02  0.47000000000E+01 0. -1.
        2    1    4    4  502    0 -0.35443886253E+00 -0.91060133864E+02  0.57785999674E+02  0.10784848337E+03  0.00000000000E+00 0. -1.
       -1    1    4    4    0  502  0.10044975263E+02 -0.27304119704E+02  0.10252759324E+03  0.10657543740E+03  0.00000000000E+00 0.  1.
       -5    1    5    5    0  504 -0.26838834179E+02  0.10443340213E+03 -0.16268381169E+03  0.19523004658E+03  0.47000000000E+01 0.  1.
       13    1    6    6    0    0  0.15631148770E+02 -0.27012915197E+02 -0.70668217618E+01  0.31999537015E+02  0.00000000000E+00 0. -1.
      -14    1    6    6    0    0 -0.40345247658E+02  0.43532958926E+01 -0.95941904834E+02  0.10417072188E+03  0.00000000000E+00 0.  1.
</event>
<event>
12   0  0.1523332E-01  0.1803311E+03  0.7957747E-01  0.1173114E+00
       21   -1    0    0  501  503  0.00000000000E+00  0.00000000000E+00  0.24168159925E+03  0.24168159925E+03  0.00000000000E+00 0. -1.
       21   -1    0    0  503  504  0.00000000000E+00  0.00000000000E+00 -0.26690485060E+03  0.26690485060E+03  0.00000000000E+00 0. -1.
        6    2    1    2  501    0  0.23344189592E+02  0.45009339588E+02  0.16664676467E+03  0.24554113835E+03  0.17305639142E+03 0.  0.
       24    2    3    3    0    0 -0.39008582538E+02  0.25583785826E+02  0.15275159131E+03  0.17860545151E+03  0.79941597755E+02 0.  0.
       -6    2    1    2    0  504 -0.23344189592E+02 -0.45009339588E+02 -0.19187001603E+03  0.26304531150E+03  0.17264976401E+03 0.  0.
      -24    2    5    5    0    0 -0.54244692696E+02 -0.34993691849E+02 -0.20363750061E+03  0.22817816385E+03  0.80187266117E+02 0.  0.
        5    1    3    3  501    0  0.62352772129E+02  0.19425553761E+02  0.13895173361E+02  0.66935686849E+02  0.47000000000E+01 0. -1.
      -11    1    4    4    0    0  0.10888701043E+02  0.10230692918E+02 -0.21941852790E+01  0.15101170055E+02  0.00000000000E+00 0.  1.
       12    1    4    4    0    0 -0.49897283581E+02  0.15353092908E+02  0.15494577659E+03  0.16350428145E+03  0.00000000000E+00 0. -1.
       -5    1    5    5    0  504  0.30900503104E+02 -0.10015647739E+02  0.11767484584E+02  0.34867147649E+02  0.47000000000E+01 0.  1.
        3    1    6    6  502    0 -0.23677916624E+02  0.15439437291E+02 -0.13388677403E+03  0.13683818261E+03  0.00000000000E+00 0. -1.
       -4    1    6    6    0  502 -0.30566776072E+02 -0.50433129140E+02 -0.69750726579E+02  0.91339981238E+02  0.00000000000E+00 0.  1.
</event>
<event>
12   0  0.1523332E-01  0.2095057E+03  0.7957747E-01  0.1148462E+00
       21   -1    0    0  501  503  0.00000000000E+00  0.00000000000E+00  0.11133469906E+04  0.11133469906E+04  0.00000000000E+00 0. -1.
       21   -1    0    0  503  504  0.00000000000E+00  0.00000000000E+00 -0.40793205085E+02  0.40793205085E+02  0.00000000000E+00 0. -1.
        6    2    1    2  501    0  0.38194996463E+02 -0.11154050285E+03  0.67225168826E+03  0.70414129544E+03  0.17318340006E+03 0.  0.
       24    2    3    3    0    0 -0.97514049450E+01 -0.24647785090E+02  0.14449779097E+03  0.16711665178E+03  0.79660281805E+02 0.  0.
       -6    2    1    2    0  504 -0.38194996463E+02  0.11154050285E+03  0.40030209729E+03  0.44999890027E+03  0.16839566390E+03 0.  0.
      -24    2    5    5    0    0 -0.72952616174E+01  0.89330801360E+02  0.39246652377E+03  0.41086386908E+03  0.82133633305E+02 0.  0.
        5    1    3    3  501    0  0.47946401408E+02 -0.86892717764E+02  0.52775389728E+03  0.53702464367E+03  0.47000000000E+01 0. -1.
      -11    1    4    4    0    0  0.14509777886E+02  0.24806714166E+02  0.54041389096E+02  0.61207666656E+02  0.00000000000E+00 0.  1.
       12    1    4    4    0    0 -0.24261182831E+02 -0.49454499257E+02  0.90456401878E+02  0.10590898512E+03  0.00000000000E+00 0. -1.
       -5    1    5    5    0  504 -0.30899734846E+02  0.22209701495E+02  0.78355735181E+01  0.39135031192E+02  0.47000000000E+01 0.  1.
        1    1    6    6  502    0 -0.34055250193E+02  0.76253559074E+01  0.94352192682E+02  0.10059941542E+03  0.00000000000E+00 0. -1.
       -2    1    6    6    0  502  0.26759988576E+02  0.81705445452E+02  0.29811433109E+03  0.31026445366E+03  0.00000000000E+00 0.  1.
</event>
<event>
12   0  0.1523332E-01  0.1874596E+03  0.7957747E-01  0.1166640E+00
        2   -1    0    0  502    0  0.00000000000E+00  0.00000000000E+00  0.25744884300E+03  0.25744884300E+03  0.00000000000E+00 0. -1.
       -2   -1    0    0    0  501  0.00000000000E+00  0.00000000000E+00 -0.13660636661E+03  0.13660636661E+03  0.00000000000E+00 0.  1.
        6    2    1    2  502    0 -0.31731951942E+02  0.67523121387E+02  0.66082415902E+02  0.19907711184E+03  0.17233259144E+03 0.  0.
       24    2    3    3    0    0 -0.24591686456E+01  0.81748157820E+02 -0.12076169763E+02  0.11428264258E+03  0.78904243882E+02 0.  0.
       -6    2    1    2    0  501  0.31731951942E+02 -0.67523121387E+02  0.54760060489E+02  0.19497809777E+03  0.17161440991E+03 0.  0.
      -24    2    5    5    0    0  0.20849037332E+01  0.20231396842E+02 -0.76136225963E+01  0.83208829730E+02  0.80324876932E+02 0.  0.
        5    1    3    3  502    0 -0.29272783296E+02 -0.14225036433E+02  0.78158585665E+02  0.84794469257E+02  0.47000000000E+01 0. -1.
        2    1    4    4  503    0  0.17238946967E+02  0.37337909553E+02  0.29277876118E+02  0.50482618913E+02  0.00000000000E+00 0. -1.
       -1    1    4    4    0  503 -0.19698115613E+02  0.44410248267E+02 -0.41354045881E+02  0.63800023672E+02  0.00000000000E+00 0.  1.
       -5    1    5    5    0  501  0.29647048209E+02 -0.87754518229E+02  0.62373683085E+02  0.11176926804E+03  0.47000000000E+01 0.  1.
       11    1    6    6    0    0 -0.16869050617E+02  0.48228711134E+01  0.32101390846E+02  0.36583114257E+02  0.00000000000E+00 0. -1.
      -12    1    6    6    0    0  0.18953954350E+02  0.15408525729E+02 -0.39715013442E+02  0.46625715473E+02  0.00000000000E+00 0.  1.
</event>
<event>
12   0  0.1523332E-01  0.2003413E+03  0.7957747E-01  0.1155706E+00
       21   -1    0    0  504  503  0.00000000000E+00  0.00000000000E+00  0.13174022001E+03  0.13174022001E+03  0.00000000000E+00 0. -1.
       21   -1    0    0  501  504  0.00000000000E+00  0.00000000000E+00 -0.30935031707E+03  0.30935031707E+03  0.00000000000E+00 0.  1.
        6    2    1    2  501    0  0.55881980953E+02  0.82024167957E+02 -0.11989608980E+03  0.23347742153E+03  0.17402837152E+03 0.  0.
       24    2    3    3    0    0  0.40607034914E+02  0.12133568363E+03 -0.11242621101E+03  0.19038904340E+03  0.85070885250E+02 0.  0.
       -6    2    1    2    0  503 -0.55881980953E+02 -0.82024167957E+02 -0.57714007256E+02  0.20761311555E+03  0.17297843562E+03 0.  0.
      -24    2    5    5    0    0 -0.12397701469E+01 -0.44722327669E+02  0.23562340803E+02  0.10270776180E+03  0.89398416138E+02 0.  0.
        5    1    3    3  501    0  0.15274946039E+02 -0.39311515676E+02 -0.74698787868E+01  0.43088378135E+02  0.47000000000E+01 0. -1.
      -11    1    4    4    0    0  0.58593157390E+02  0.85922842121E+02 -0.10879205246E+03  0.15050449684E+03  0.00000000000E+00 0.  1.
       12    1    4    4    0    0 -0.17986122476E+02  0.35412841512E+02 -0.36341585484E+01  0.39884546557E+02  0.00000000000E+00 0. -1.
       -5    1    5    5    0  503 -0.54642210806E+02 -0.37301840288E+02 -0.81276348058E+02  0.10490535375E+03  0.47000000000E+01 0.  1.
        3    1    6    6  502    0 -0.16222938809E+02 -0.65868592150E+02  0.32596195865E+02  0.75261990143E+02  0.00000000000E+00 0. -1.
       -4    1    6    6    0  502  0.14983168662E+02  0.21146264481E+02 -0.90338550626E+01  0.27445771658E+02  0.00000000000E+00 0.  1.
</event>
<event>
12   0  0.1523332E-01  0.1832434E+03  0.7957747E-01  0.1170430E+00
       21   -1    0    0  501  503  0.00000000000E+00  0.00000000000E+00  0.49966426187E+03  0.49966426187E+03  0.00000000000E+00 0.  1.
       21   -1    0    0  503  504  0.00000000000E+00  0.00000000000E+00 -0.66918597343E+02  0.66918597343E+02  0.00000000000E+00 0.  1.
        6    2    1    2  501    0 -0.33198844551E+02  0.50722790812E+02  0.20184105539E+03  0.27261318529E+03  0.17292533754E+03 0.  0.
       24    2    3    3    0    0  0.42379301580E+02  0.40535123157E+02  0.74969076005E+02  0.12451040375E+03  0.80270647647E+02 0.  0.
       -6    2    1    2    0  504  0.33198844551E+02 -0.50722790812E+02  0.23090460913E+03  0.29396967392E+03  0.17154085776E+03 0.  0.
      -24    2    5    5    0    0  0.72376254167E+02 -0.36519756491E+01  0.19728553836E+03  0.22394922702E+03  0.77330547301E+02 0.  0.
        5    1    3    3  501    0 -0.75578146131E+02  0.10187667655E+02  0.12687197939E+03  0.14810278153E+03  0.47000000000E+01 0. -1.
      -13    1    4    4    0    0 -0.80125574894E+01  0.43566460691E+02  0.54003366987E+02  0.69846984335E+02  0.00000000000E+00 0.  1.
       14    1    4    4    0    0  0.50391859070E+02 -0.30313375347E+01  0.20965709018E+02  0.54663419417E+02  0.00000000000E+00 0. -1.
       -5    1    5    5    0  504 -0.39177409617E+02 -0.47070815163E+02  0.33619070774E+02  0.70020446900E+02  0.47000000000E+01 0.  1.
        3    1    6    6  502    0  0.60050577279E+02  0.31058785549E+02  0.14505952704E+03  0.16004057728E+03  0.00000000000E+00 0. -1.
       -4    1    6    6    0  502  0.12325676888E+02 -0.34710761198E+02  0.52226011313E+02  0.63908649738E+02  0.00000000000E+00 0.  1.
</event>
<event>
12   0  0.1523332E-01  0.2025391E+03  0.7957747E-01  0.1153931E+00
       21   -1    0    0  501  503  0.00000000000E+00  0.00000000000E+00  0.78513247295E+02  0.78513247295E+02  0.00000000000E+00 0.  1.
       21   -1    0    0  503  504  0.00000000000E+00  0.00000000000E+00 -0.54197191289E+03  0.54197191289E+03  0.00000000000E+00 0.  1.
        6    2    1    2  501    0  0.10110227344E+03  0.20421060166E+02 -0.29163259948E+03  0.35506568408E+03  0.17430828306E+03 0.  0.
       24    2    3    3    0    0  0.44794935325E+02  0.70179512634E+02 -0.11613225003E+03  0.16409740772E+03  0.80681531352E+02 0.  0.
       -6    2    1    2    0  504 -0.10110227344E+03 -0.20421060166E+02 -0.17182606611E+03  0.26541947610E+03  0.17402474509E+03 0.  0.
      -24    2    5    5    0    0 -0.11635820753E+03  0.29158329224E+02 -0.15627158600E+03  0.21106056488E+03  0.75738450165E+02 0.  0.
        5    1    3    3  501    0  0.56307338118E+02 -0.49758452468E+02 -0.17550034945E+03  0.19096827636E+03  0.47000000000E+01 0. -1.
        2    1    4    4  502    0 -0.12859471318E+01  0.51854277603E+02 -0.19372637054E+02  0.55369836844E+02  0.00000000000E+00 0. -1.
       -1    1    4    4    0  502  0.46080882457E+02  0.18325235031E+02 -0.96759612972E+02  0.10872757088E+03  0.00000000000E+00 0.  1.
       -5    1    5    5    0  504  0.15255934092E+02 -0.49579389390E+02 -0.15554480117E+02  0.54358911219E+02  0.47000000000E+01 0.  1.
       13    1    6    6    0    0 -0.60743312424E+02  0.17341884830E+02 -0.13727899682E+03  0.15111589572E+03  0.00000000000E+00 0. -1.
      -14    1    6    6    0    0 -0.55614895110E+02  0.11816444394E+02 -0.18992589179E+02  0.59944669154E+02  0.00000000000E+00 0.  1.
</event>
<event>
12   0  0.1523332E-01  0.1855148E+03  0.7957747E-01  0.1168375E+00
       21   -1    0    0  501  503  0.00000000000E+00  0.00000000000E+00  0.15815851056E+03  0.15815851056E+03  0.00000000000E+00 0. -1.
       21   -1    0    0  503  504  0.00000000000E+00  0.00000000000E+00 -0.21767656806E+03  0.21767656806E+03  0.00000000000E+00 0. -1.
        6    2    1    2  501    0  0.69971823843E+02  0.15540012036E+02 -0.37912856248E+02  0.18934925343E+03  0.17110875781E+03 0.  0.
       24    2    3    3    0    0  0.10982655431E+02 -0.39033904894E+02 -0.57247768447E+02  0.10656058737E+03  0.80209646153E+02 0.  0.
       -6    2    1    2    0  504 -0.69971823843E+02 -0.15540012036E+02 -0.21605201256E+02  0.18648582519E+03  0.17079997122E+03 0.  0.
      -24    2    5    5    0    0 -0.85927302334E+02  0.56661192753E+01  0.35963322063E+02  0.12292088063E+03  0.80003600967E+02 0.  0.
        5    1    3    3  501    0  0.58989168412E+02  0.54573916930E+02  0.19334912200E+02  0.82788666064E+02  0.47000000000E+01 0. -1.
        2    1    4    4  502    0  0.39531038142E+02 -0.43605372206E+02 -0.27120860304E+02  0.64804880414E+02  0.00000000000E+00 0. -1.
       -1    1    4    4    0  502 -0.28548382711E+02  0.45714673123E+01 -0.30126908143E+02  0.41755706952E+02  0.00000000000E+00 0.  1.
       -5    1    5    5    0  504  0.15955478491E+02 -0.21206131311E+02 -0.57568523319E+02  0.63564944555E+02  0.47000000000E+01 0.  1.
       13    1    6    6    0    0 -0.40418730553E+02  0.32599731788E+02 -0.99703163334E+01  0.52875547278E+02  0.00000000000E+00 0. -1.
      -14    1    6    6    0    0 -0.45508571781E+02 -0.26933612512E+02  0.45933638397E+02  0.70045333355E+02  0.00000000000E+00 0.  1.
</event>
<event>
12   0  0.1523332E-01  0.1782636E+03  0.7957747E-01  0.1175054E+00
        1   -1    0    0  502    0  0.00000000000E+00  0.00000000000E+00  0.70972964047E+03  0.70972964047E+03  0.00000000000E+00 0.  1.
       -1   -1    0    0    0  501  0.00000000000E+00  0.00000000000E+00 -0.45428211354E+02  0.45428211354E+02  0.00000000000E+00 0. -1.
        6    2    1    2  502    0 -0.35890832682E+02 -0.22762431661E+02  0.28626619422E+03  0.33706000010E+03  0.17278550157E+03 0.  0.
       24    2    3    3    0    0  0.48372736711E+01  0.33194335962E+02  0.23567052917E+03  0.25119994064E+03  0.80221871701E+02 0.  0.
       -6    2    1    2    0  501  0.35890832682E+02  0.22762431661E+02  0.37803523489E+03  0.41809785172E+03  0.17346150762E+03 0.  0.
      -24    2    5    5    0    0 -0.39290204368E+02  0.41097226918E+02  0.13249371399E+03  0.16060788777E+03  0.70764448318E+02 0.  0.
        5    1    3    3  502    0 -0.40728106353E+02 -0.55956767623E+02  0.50595665044E+02  0.85860059464E+02  0.47000000000E+01 0. -1.
      -13    1    4    4    0    0  0.16547397263E+01 -0.26766521520E+02  0.78134048159E+02  0.82608197653E+02  0.00000000000E+00 0.  1.
       14    1    4    4    0    0  0.31825339448E+01  0.59960857482E+02  0.15753648102E+03  0.16859174299E+03  0.00000000000E+00 0. -1.
       -5    1    5    5    0  501  0.75181037050E+02 -0.18334795257E+02  0.24554152090E+03  0.25748996395E+03  0.47000000000E+01 0.  1.
        3    1    6    6  503    0 -0.48851604607E+02  0.61183360263E+01  0.10187538401E+03  0.11314816470E+03  0.00000000000E+00 0. -1.
       -4    1    6    6    0  503  0.95614002390E+01  0.34978890892E+02  0.30618329989E+02  0.47459723070E+02  0.00000000000E+00 0.  1.
</event>
<event>
12   0  0.1523332E-01  0.1845560E+03  0.7957747E-01  0.1169238E+00
       21   -1    0    0  504  503  0.00000000000E+00  0.00000000000E+00  0.17206973157E+03  0.17206973157E+03  0.00000000000E+00 0. -1.
       21   -1    0    0  501  504  0.00000000000E+00  0.00000000000E+00 -0.37720699124E+03  0.37720699124E+03  0.00000000000E+00 0. -1.
        6    2    1    2  501    0  0.30692772609E+02  0.53225843642E+02 -0.29197504656E+03  0.34531173834E+03  0.17382673012E+03 0.  0.
       24    2    3    3    0    0 -0.11351837569E+02  0.86033580661E+02 -0.25214245969E+03  0.27858227087E+03  0.80632626425E+02 0.  0.
       -6    2    1    2    0  503 -0.30692772609E+02 -0.53225843642E+02  0.86837786880E+02  0.20396498447E+03  0.17402837969E+03 0.  0.
      -24    2    5    5    0    0  0.34565382877E+01 -0.52829826007E+02  0.11573600663E+03  0.15898132778E+03  0.95274871704E+02 0.  0.
        5    1    3    3  501    0  0.42044610178E+02 -0.32807737019E+02 -0.39832586866E+02  0.66729467477E+02  0.47000000000E+01 0. -1.
      -11    1    4    4    0    0  0.13612522146E+02  0.59802658348E+02 -0.70851434714E+02  0.93710108876E+02  0.00000000000E+00 0.  1.
       12    1    4    4    0    0 -0.24964359715E+02  0.26230922313E+02 -0.18129102498E+03  0.18487216199E+03  0.00000000000E+00 0. -1.
       -5    1    5    5    0  503 -0.34149310896E+02 -0.39601763449E+00 -0.28898219751E+02  0.44983656692E+02  0.47000000000E+01 0.  1.
        1    1    6    6  502    0 -0.19974628744E+02  0.18275064049E+02  0.88481355512E+01  0.28482508004E+02  0.00000000000E+00 0. -1.
       -2    1    6    6    0  502  0.23431167032E+02 -0.71104890057E+02  0.10688787108E+03  0.13049881977E+03  0.00000000000E+00 0.  1.
</event>
<event>
12   0  0.1523332E-01  0.1798104E+03  0.7957747E-01  0.1173600E+00
       -2   -1    0    0    0  501  0.00000000000E+00  0.00000000000E+00  0.60804455888E+02  0.60804455888E+02  0.00000000000E+00 0. -1.
        2   -1    0    0  502    0  0.00000000000E+00  0.00000000000E+00 -0.53326659238E+03  0.53326659238E+03  0.00000000000E+00 0.  1.
        6    2    1    2  502    0 -0.49280501073E+02 -0.14849386939E+02 -0.25202881156E+03  0.30954088501E+03  0.17218584599E+03 0.  0.
       24    2    3    3    0    0  0.12456753450E+02 -0.56855298454E+00 -0.22643543156E+03  0.24103875428E+03  0.81677306769E+02 0.  0.
       -6    2    1    2    0  501  0.49280501073E+02  0.14849386939E+02 -0.22043332494E+03  0.28453016326E+03  0.17238761842E+03 0.  0.
      -24    2    5    5    0    0  0.67505538778E+01  0.69905074698E+02 -0.17225062074E+03  0.19977411247E+03  0.72850052985E+02 0.  0.
        5    1    3    3  502    0 -0.61737254523E+02 -0.14280833955E+02 -0.25593379999E+02  0.68502130728E+02  0.47000000000E+01 0. -1.
      -11    1    4    4    0    0  0.23943720386E+02  0.22658046345E+02 -0.35859283393E+02  0.48709106084E+02  0.00000000000E+00 0.  1.
       12    1    4    4    0    0 -0.11486966936E+02 -0.23226599329E+02 -0.19057614816E+03  0.19232964820E+03  0.00000000000E+00 0. -1.
       -5    1    5    5    0  501  0.42529947195E+02 -0.55055687758E+02 -0.48182704197E+02  0.84756050797E+02  0.47000000000E+01 0.  1.
        3    1    6    6  503    0  0.35425654201E+02  0.28393875753E+02 -0.50080039351E+02  0.67595854142E+02  0.00000000000E+00 0. -1.
       -4    1    6    6    0  503 -0.28675100323E+02  0.41511198945E+02 -0.12217058139E+03  0.13217825832E+03  0.00000000000E+00 0.  1.
</event>
<event>
12   0  0.1523332E-01  0.1897949E+03  0.7957747E-01  0.1164588E+00
       21   -1    0    0  501  503  0.00000000000E+00  0.00000000000E+00  0.10113924482E+03  0.10113924482E+03  0.00000000000E+00 0.  1.
       21   -1    0    0  503  504  0.00000000000E+00  0.00000000000E+00 -0.82507526871E+03  0.82507526871E+03  0.00000000000E+00 0.  1.
        6    2    1    2  501    0  0.64282353017E+02  0.40889253887E+02 -0.12718402312E+02  0.19022055827E+03  0.17383311261E+03 0.  0.
       24    2    3    3    0    0  0.93895560625E+02  0.74235071109E+02 -0.14567519435E+02  0.14533854823E+03  0.81140981581E+02 0.  0.
       -6    2    1    2    0  504 -0.64282353017E+02 -0.40889253887E+02 -0.71121762157E+03  0.73599395526E+03  0.17335641019E+03 0.  0.
      -24    2    5    5    0    0  0.13406066322E+02 -0.66590070907E+02 -0.37612842594E+03  0.39102601252E+03  0.82551738343E+02 0.  0.
        5    1    3    3  501    0 -0.29613207607E+02 -0.33345817222E+02  0.18491171229E+01  0.44882010039E+02  0.47000000000E+01 0. -1.
        2    1    4    4  502    0  0.32786910562E+02 -0.13005959416E+02 -0.16193630384E+02  0.38811984613E+02  0.00000000000E+00 0. -1.
       -1    1    4    4    0  502  0.61108650062E+02  0.87241030525E+02  0.16261109499E+01  0.10652656362E+03  0.00000000000E+00 0.  1.
       -5    1    5    5    0  504 -0.77688419339E+02  0.25700817020E+02 -0.33508919563E+03  0.34496794275E+03  0.47000000000E+01 0.  1.
       11    1    6    6    0    0 -0.14532972514E+02 -0.34080986139E+02 -0.50745449415E+02  0.62831692183E+02  0.00000000000E+00 0. -1.
      -12    1    6    6    0    0  0.27939038836E+02 -0.32509084768E+02 -0.32538297653E+03  0.32819432033E+03  0.00000000000E+00 0.  1.
</event>
<event>
12   0  0.1523332E-01  0.1888037E+03  0.7957747E-01  0.1165455E+00
       21   -1    0    0  501  503  0.00000000000E+00  0.00000000000E+00  0.23793742175E+03  0.23793742175E+03  0.00000000000E+00 0.  1.
       21   -1    0    0  503  504  0.00000000000E+00  0.00000000000E+00 -0.30654057035E+03  0.30654057035E+03  0.00000000000E+00 0.  1.
        6    2    1    2  501    0 -0.50331016625E+02  0.51426284536E+02  0.16105772944E+03  0.24816615725E+03  0.17455364625E+03 0.  0.
       24    2    3    3    0    0 -0.84615270124E+02  0.56075398935E+02  0.16890073057E+03  0.21238030852E+03  0.79206971647E+02 0.  0.
       -6    2    1    2    0  504  0.50331016625E+02 -0.51426284536E+02 -0.22966087804E+03  0.29631183485E+03  0.17285459379E+03 0.  0.
      -24    2    5    5    0    0  0.33283148839E+02  0.69497396004E+01 -0.35387589090E+02  0.92688184973E+02  0.78630473068E+02 0.  0.
        5    1    3    3  501    0  0.34284253499E+02 -0.46491143990E+01 -0.78430011289E+01  0.35785848731E+02  0.47000000000E+01 0. -1.
        4    1    4    4  502    0 -0.14923072015E+02  0.31164740733E+02  0.82846542867E+01  0.35532726323E+02  0.00000000000E+00 0. -1.
       -3    1    4    4    0  502 -0.69692198110E+02  0.24910658201E+02  0.16061607628E+03  0.17684758220E+03  0.00000000000E+00 0.  1.
       -5    1    5    5    0  504  0.17047867786E+02 -0.58376024136E+02 -0.19427328895E+03  0.20362364987E+03  0.47000000000E+01 0.  1.
       13    1    6    6    0    0 -0.81897430499E+01 -0.28925252057E+02 -0.18551230670E+02  0.35325490190E+02  0.00000000000E+00 0. -1.
      -14    1    6    6    0    0  0.41472891889E+02  0.35874991657E+02 -0.16836358419E+02  0.57362694783E+02  0.00000000000E+00 0.  1.
</event>
<event>
12   0  0.1523332E-01  0.2148527E+03  0.7957747E-01  0.1144421E+00
       21   -1    0    0  504  503  0.00000000000E+00  0.00000000000E+00  0.22739775583E+03  0.22739775583E+03  0.00000000000E+00 0.  1.
       21   -1    0    0  501  504  0.00000000000E+00  0.00000000000E+00 -0.30773584278E+03  0.30773584278E+03  0.00000000000E+00 0.  1.
        6    2    1    2  501    0  0.82047571775E+02  0.95625076034E+02 -0.19729147636E+03  0.29169441148E+03  0.17402799729E+03 0.  0.
       24    2    3    3    0    0 -0.17838640810E+02  0.12347956036E+02 -0.47185173235E+02  0.93033075485E+02  0.77188233798E+02 0.  0.
       -6    2    1    2    0  503 -0.82047571775E+02 -0.95625076034E+02  0.11695338941E+03  0.24343918713E+03  0.17236178038E+03 0.  0.
      -24    2    5    5    0    0 -0.11819985097E+03 -0.89670111291E+02  0.11736441821E+03  0.20649723482E+03  0.82793524505E+02 0.  0.
        5    1    3    3  501    0  0.99886212585E+02  0.83277119998E+02 -0.15010630313E+03  0.19866133599E+03  0.47000000000E+01 0. -1.
      -11    1    4    4    0    0  0.23192125313E+02  0.75754998081E+01 -0.45574531077E+02  0.51694301008E+02  0.00000000000E+00 0.  1.
       12    1    4    4    0    0 -0.41030766123E+02  0.47724562281E+01 -0.16106421578E+01  0.41338774477E+02  0.00000000000E+00 0. -1.
       -5    1    5    5    0  503  0.36152279192E+02 -0.59549647439E+01 -0.41102879516E+00  0.36941952311E+02  0.47000000000E+01 0.  1.
        3    1    6    6  502    0 -0.83124299065E+01 -0.19441795120E+02 -0.10718983862E+02  0.23706043607E+02  0.00000000000E+00 0. -1.
       -4    1    6    6    0  502 -0.10988742106E+03 -0.70228316170E+02  0.12808340207E+03  0.18279119122E+03  0.00000000000E+00 0.  1.
</event>
<event>
12   0  0.1523332E-01  0.1755485E+03  0.7957747E-01  0.1177645E+00
       21   -1    0    0  501  503  0.00000000000E+00  0.00000000000E+00  0.96387138184E+03  0.96387138184E+03  0.00000000000E+00 0.  1.
       21   -1    0    0  503  504  0.00000000000E+00  0.00000000000E+00 -0.47566511446E+02  0.47566511446E+02  0.00000000000E+00 0.  1.
        6    2    1    2  501    0  0.26302582753E+02  0.14263706229E+01  0.75032106737E+03  0.77058353484E+03  0.17356099689E+03 0.  0.
       24    2    3    3    0    0 -0.22314332953E+02 -0.30099121999E+02  0.63662475182E+03  0.64288700651E+03  0.81294169007E+02 0.  0.
       -6    2    1    2    0  504 -0.26302582753E+02 -0.14263706229E+01  0.16598380303E+03  0.24085435845E+03  0.17252924019E+03 0.  0.
      -24    2    5    5    0    0  0.21891571718E+02  0.56339702722E+02  0.10002558450E+03  0.14069362589E+03  0.78333746215E+02 0.  0.
        5    1    3    3  501    0  0.48616915707E+02  0.31525492621E+02  0.11369631555E+03  0.12769652833E+03  0.47000000000E+01 0. -1.
        2    1    4    4  502    0 -0.52838133177E+02 -0.16140450112E+02  0.35586917691E+03  0.36013227226E+03  0.00000000000E+00 0. -1.
       -1    1    4    4    0  502  0.30523800224E+02 -0.13958671886E+02  0.28075557491E+03  0.28275473425E+03  0.00000000000E+00 0.  1.
       -5    1    5    5    0  504 -0.48194154471E+02 -0.57766073345E+02  0.65958218523E+02  0.10016073255E+03  0.47000000000E+01 0.  1.
       11    1    6    6    0    0 -0.11334136327E+02  0.58382009824E+02  0.38817847269E+02  0.71019342323E+02  0.00000000000E+00 0. -1.
      -12    1    6    6    0    0  0.33225708045E+02 -0.20423071020E+01  0.61207737236E+02  0.69674283569E+02  0.00000000000E+00 0.  1.
</event>
<event>
12   0  0.1523332E-01  0.3461481E+03  0.7957747E-01  0.1072965E+00
        1   -1    0    0  502    0  0.00000000000E+00  0.00000000000E+00  0.11779555878E+04  0.11779555878E+04  0.00000000000E+00 0.  1.
       -1   -1    0    0    0  501  0.00000000000E+00  0.00000000000E+00 -0.15578542260E+03  0.15578542260E+03  0.00000000000E+00 0. -1.
        6    2    1    2  502    0  0.28959179445E+03 -0.76849248352E+02  0.90398645534E+03  0.96800452625E+03  0.17341290907E+03 0.  0.
       24    2    3    3    0    0  0.23373066768E+03 -0.11864201747E+03  0.75905680417E+03  0.80708903656E+03  0.80743592079E+02 0.  0.
       -6    2    1    2    0  501 -0.28959179445E+03  0.76849248352E+02  0.11818370986E+03  0.36573648415E+03  0.17328177105E+03 0.  0.
      -24    2    5    5    0    0 -0.18445860042E+03 -0.10174411379E+01  0.21961202418E+02  0.20326473043E+03  0.82512094678E+02 0.  0.
        5    1    3    3  502    0  0.55861126773E+02  0.41792769120E+02  0.14492965117E+03  0.16091548969E+03  0.47000000000E+01 0. -1.
        2    1    4    4  503    0  0.89418551171E+02 -0.65567723168E+02  0.21759309914E+03  0.24421621652E+03  0.00000000000E+00 0. -1.
       -1    1    4    4    0  503  0.14431211650E+03 -0.53074294305E+02  0.54146370502E+03  0.56287282004E+03  0.00000000000E+00 0.  1.
       -5    1    5    5    0  501 -0.10513319402E+03  0.77866689490E+02  0.96222507447E+02  0.16247175372E+03  0.47000000000E+01 0.  1.
       11    1    6    6    0    0 -0.15022495330E+03 -0.79829158663E+00  0.50715561359E+02  0.15855674703E+03  0.00000000000E+00 0. -1.
      -12    1    6    6    0    0 -0.34233647122E+02 -0.21914955129E+00 -0.28754358940E+02  0.44707983402E+02  0.00000000000E+00 0.  1.
</event>
<event>
12   0  0.1523332E-01  0.1930439E+03  0.7957747E-01  0.1161785E+00
        3   -1    0    0  502    0  0.00000000000E+00  0.00000000000E+00  0.24342937239E+03  0.24342937239E+03  0.00000000000E+00 0. -1.
       -3   -1    0    0    0  501  0.00000000000E+00  0.00000000000E+00 -0.15403454791E+03  0.15403454791E+03  0.00000000000E+00 0.  1.
        6    2    1    2  502    0  0.85649078836E+02  0.65512532628E+01  0.60187908576E+02  0.20184251299E+03  0.17245037572E+03 0.  0.
       24    2    3    3    0    0  0.62451129937E+02 -0.47284432685E+02 -0.71280433778E+01  0.11245597428E+03  0.80371487138E+02 0.  0.
       -6    2    1    2    0  501 -0.85649078836E+02 -0.65512532628E+01  0.29206915908E+02  0.19562140731E+03  0.17330899410E+03 0.  0.
      -24    2    5    5    0    0 -0.77706494662E+00  0.46316355801E+02  0.97882698022E+01  0.93653683761E+02  0.80804663303E+02 0.  0.
        5    1    3    3  502    0  0.23197948899E+02  0.53835685948E+02  0.67315951954E+02  0.89386538707E+02  0.47000000000E+01 0. -1.
      -11    1    4    4    0    0 -0.58162509769E+01  0.17300260930E+02 -0.13638522666E+01  0.18302674577E+02  0.00000000000E+00 0.  1.
       12    1    4    4    0    0  0.68267380914E+02 -0.64584693616E+02 -0.57641911112E+01  0.94153299705E+02  0.00000000000E+00 0. -1.
       -5    1    5    5    0  501 -0.84872013889E+02 -0.52867609064E+02  0.19418646106E+02  0.10196772355E+03  0.47000000000E+01 0.  1.
        1    1    6    6  503    0  0.92941768324E+01  0.18975775712E+02 -0.34609123547E+02  0.40549392345E+02  0.00000000000E+00 0. -1.
       -2    1    6    6    0  503 -0.10071241779E+02  0.27340580089E+02  0.44397393349E+02  0.53104291416E+02  0.00000000000E+00 0.  1.
</event>
<event>
12   0  0.1523332E-01  0.2764956E+03  0.7957747E-01  0.1105482E+00
       21   -1    0    0  504  503  0.00000000000E+00  0.00000000000E+00  0.88200367390E+03  0.88200367390E+03  0.00000000000E+00 0. -1.
       21   -1    0    0  501  504  0.00000000000E+00  0.00000000000E+00 -0.15401424169E+03  0.15401424169E+03  0.00000000000E+00 0.  1.
        6    2    1    2  501    0  0.21420485209E+03 -0.23190649925E+02  0.21342289308E+02  0.27731807389E+03  0.17328674470E+03 0.  0.
       24    2    3    3    0    0  0.19961369058E+03  0.88212089929E+01  0.60927053822E+02  0.22415131090E+03  0.81291236274E+02 0.  0.
       -6    2    1    2    0  503 -0.21420485209E+03  0.23190649925E+02  0.70664714290E+03  0.75869984170E+03  0.17278234958E+03 0.  0.
      -24    2    5    5    0    0 -0.56267432649E+02  0.14371882721E+02  0.14633536792E+03  0.17646846647E+03  0.79715147660E+02 0.  0.
        5    1    3    3  501    0  0.14591161514E+02 -0.32011858918E+02 -0.39584764514E+02  0.53166762994E+02  0.47000000000E+01 0. -1.
        2    1    4    4  502    0  0.17880512299E+03  0.32439221969E+02  0.63669752106E+02  0.19255495959E+03  0.00000000000E+00 0. -1.
       -1    1    4    4    0  502  0.20808567587E+02 -0.23618012976E+02 -0.27426982842E+01  0.31596351306E+02  0.00000000000E+00 0.  1.
       -5    1    5    5    0  503 -0.15793741944E+03  0.88187672038E+01  0.56031177499E+03  0.58223137523E+03  0.47000000000E+01 0.  1.
       13    1    6    6    0    0 -0.11939837023E+02 -0.16539409697E+02  0.10873915445E+03  0.11063595931E+03  0.00000000000E+00 0. -1.
      -14    1    6    6    0    0 -0.44327595626E+02  0.30911292417E+02  0.37596213467E+02  0.65832507168E+02  0.00000000000E+00 0.  1.
</event>
<event>
12   0  0.1523332E-01  0.1866804E+03  0.7957747E-01  0.1167332E+00
       21   -1    0    0  504  503  0.00000000000E+00  0.00000000000E+00  0.15733777842E+03  0.15733777842E+03  0.00000000000E+00 0. -1.
       21   -1    0    0  501  504  0.00000000000E+00  0.00000000000E+00 -0.26279440295E+03  0.26279440295E+03  0.00000000000E+00 0. -1.
        6    2    1    2  501    0  0.57011621890E+02  0.41282410928E+02 -0.14217954515E+03  0.22987410499E+03  0.16635058943E+03 0.  0.
       24    2    3    3    0    0 -0.22622401435E+02  0.18236844675E+02 -0.37027786732E+02  0.95890307119E+02  0.83543632065E+02 0.  0.
       -6    2    1    2    0  503 -0.57011621890E+02 -0.41282410928E+02  0.36722920616E+02  0.19025807638E+03  0.17290170690E+03 0.  0.
      -24    2    5    5    0    0  0.57480265090E+01  0.19276159819E+02  0.60250843865E+02  0.99804955206E+02  0.76982171645E+02 0.  0.
        5    1    3    3  501    0  0.79634023325E+02  0.23045566253E+02 -0.10515175841E+03  0.13398379787E+03  0.47000000000E+01 0. -1.
      -11    1    4    4    0    0 -0.20167016652E+02 -0.26932672953E+02  0.51538962503E+01  0.34038802558E+02  0.00000000000E+00 0.  1.
       12    1    4    4    0    0 -0.24553847829E+01  0.45169517628E+02 -0.42181682983E+02  0.61851504561E+02  0.00000000000E+00 0. -1.
       -5    1    5    5    0  503 -0.62759648399E+02 -0.60558570748E+02 -0.23527923249E+02  0.90453121176E+02  0.47000000000E+01 0.  1.
        3    1    6    6  502    0  0.21600564739E+02 -0.46174168469E+01 -0.97606753824E+01  0.24149031436E+02  0.00000000000E+00 0. -1.
       -4    1    6    6    0  502 -0.15852538230E+02  0.23893576666E+02  0.70011519248E+02  0.75655923771E+02  0.00000000000E+00 0.  1.
</event>
<event>
12   0  0.1523332E-01  0.1880206E+03  0.7957747E-01  0.1166144E+00
       21   -1    0    0  501  503  0.00000000000E+00  0.00000000000E+00  0.71345072555E+02  0.71345072555E+02  0.00000000000E+00 0. -1.
       21   -1    0    0  503  504  0.00000000000E+00  0.00000000000E+00 -0.65354008032E+03  0.65354008032E+03  0.00000000000E+00 0. -1.
        6    2    1    2  501    0 -0.72412102238E+02  0.34474590808E+01 -0.11025726420E+03  0.21687236779E+03  0.17210915745E+03 0.  0.
       24    2    3    3    0    0 -0.39669259117E+02  0.18221522206E+02 -0.14188483488E+03  0.16878120495E+03  0.80312606635E+02 0.  0.
       -6    2    1    2    0  504  0.72412102238E+02 -0.34474590808E+01 -0.47193774357E+03  0.50801278508E+03  0.17348302072E+03 0.  0.
      -24    2    5    5    0    0  0.11254142195E+03  0.88332276395E+01 -0.31991148286E+03  0.35023049358E+03  0.87031282909E+02 0.  0.
        5    1    3    3  501    0 -0.32742843121E+02 -0.14774063126E+02  0.31627570679E+02  0.48091162847E+02  0.47000000000E+01 0. -1.
      -11    1    4    4    0    0 -0.30118844147E+02  0.46758951815E+02 -0.61358097064E+02  0.82815218546E+02  0.00000000000E+00 0.  1.
       12    1    4    4    0    0 -0.95504149705E+01 -0.28537429609E+02 -0.80526737816E+02  0.85965986402E+02  0.00000000000E+00 0. -1.
       -5    1    5    5    0  504 -0.40129319708E+02 -0.12280686720E+02 -0.15202626071E+03  0.15778229150E+03  0.47000000000E+01 0.  1.
        1    1    6    6  502    0  0.61968864134E+02 -0.36275767964E+02 -0.12885675816E+03  0.14751317090E+03  0.00000000000E+00 0. -1.
       -2    1    6    6    0  502  0.50572557811E+02  0.45108995603E+02 -0.19105472470E+03  0.20271732268E+03  0.00000000000E+00 0.  1.
</event>
<event>
12   0  0.1523332E-01  0.2522901E+03  0.7957747E-01  0.1119314E+00
       21   -1    0    0  501  503  0.00000000000E+00  0.00000000000E+00  0.39429046458E+03  0.39429046458E+03  0.00000000000E+00 0. -1.
       21   -1    0    0  503  504  0.00000000000E+00  0.00000000000E+00 -0.16633766545E+03  0.16633766545E+03  0.00000000000E+00 0.  1.
        6    2    1    2  501    0 -0.17492792417E+03  0.10345838977E+02  0.17994238008E+03  0.30988638468E+03  0.18150343308E+03 0.  0.
       24    2    3    3    0    0 -0.14026311021E+03  0.73562172254E+02  0.10696624600E+03  0.20719480632E+03  0.80017352556E+02 0.  0.
       -6    2    1    2    0  504  0.17492792417E+03 -0.10345838977E+02  0.48010419047E+02  0.25074174535E+03  0.17279932721E+03 0.  0.
      -24    2    5    5    0    0  0.15961589935E+02 -0.22577280398E+02  0.30212593822E+02  0.90246399114E+02  0.80418317467E+02 0.  0.
        5    1    3    3  501    0 -0.34664813968E+02 -0.63216333277E+02  0.72976134080E+02  0.10269157836E+03  0.47000000000E+01 0. -1.
        2    1    4    4  502    0 -0.63057307748E+02  0.44402876905E+02  0.97216285731E+02  0.12409208576E+03  0.00000000000E+00 0. -1.
       -1    1    4    4    0  502 -0.77205802458E+02  0.29159295349E+02  0.97499602736E+01  0.83102720556E+02  0.00000000000E+00 0.  1.
       -5    1    5    5    0  504  0.15896633424E+03  0.12231441420E+02  0.17797825225E+02  0.16049534624E+03  0.47000000000E+01 0.  1.
       13    1    6    6    0    0  0.18032756111E+02 -0.42658094128E+02  0.45499749797E+02  0.64923959516E+02  0.00000000000E+00 0. -1.
      -14    1    6    6    0    0 -0.20711661753E+01  0.20080813730E+02 -0.15287155975E+02  0.25322439598E+02  0.00000000000E+00 0.  1.
</event>
<event>
12   0  0.1523332E-01  0.1887728E+03  0.7957747E-01  0.1165482E+00
       21   -1    0    0  504  503  0.00000000000E+00  0.00000000000E+00  0.73323194736E+02  0.73323194736E+02  0.00000000000E+00 0.  1.
       21   -1    0    0  501  504  0.00000000000E+00  0.00000000000E+00 -0.64410760940E+03  0.64410760940E+03  0.00000000000E+00 0.  1.
        6    2    1    2  501    0  0.72560854433E+02 -0.15005693647E+02 -0.46464866464E+03  0.50086679782E+03  0.17169426074E+03 0.  0.
       24    2    3    3    0    0  0.30806281052E+02  0.20999557699E+01 -0.44217637787E+03  0.45023932195E+03  0.79006715669E+02 0.  0.
       -6    2    1    2    0  503 -0.72560854433E+02  0.15005693647E+02 -0.10613575002E+03  0.21656400631E+03  0.17362293328E+03 0.  0.
      -24    2    5    5    0    0 -0.19491635231E+02 -0.43463043095E+02 -0.10056311447E+03  0.13726659482E+03  0.80375481967E+02 0.  0.
        5    1    3    3  501    0  0.41754573381E+02 -0.17105649417E+02 -0.22472286774E+02  0.50627475871E+02  0.47000000000E+01 0. -1.
      -13    1    4    4    0    0  0.55120094477E+02  0.11125984712E+02 -0.24533833845E+03  0.25170004502E+03  0.00000000000E+00 0.  1.
       14    1    4    4    0    0 -0.24313813425E+02 -0.90260289416E+01 -0.19683803942E+03  0.19853927693E+03  0.00000000000E+00 0. -1.
       -5    1    5    5    0  503 -0.53069219202E+02  0.58468736742E+02 -0.55726355511E+01  0.79297411496E+02  0.47000000000E+01 0.  1.
        1    1    6    6  502    0  0.25071810613E+02 -0.11047309357E+01 -0.55895960611E+02  0.61271318987E+02  0.00000000000E+00 0. -1.
       -2    1    6    6    0  502 -0.44563445843E+02 -0.42358312160E+02 -0.44667153860E+02  0.75995275829E+02  0.00000000000E+00 0.  1.
</event>
<event>
12   0  0.1523332E-01  0.2170654E+03  0.7957747E-01  0.1142786E+00
       21   -1    0    0  504  503  0.00000000000E+00  0.00000000000E+00  0.36069766013E+03  0.36069766013E+03  0.00000000000E+00 0.  1.
       21   -1    0    0  501  504  0.00000000000E+00  0.00000000000E+00 -0.13670968670E+03  0.13670968670E+03  0.00000000000E+00 0.  1.
        6    2    1    2  501    0  0.14464451980E+02 -0.13099051438E+03  0.59368825462E+02  0.22497968048E+03  0.17240494182E+03 0.  0.
       24    2    3    3    0    0  0.33221119479E+02 -0.14033131826E+03  0.42023859294E+01  0.16578095378E+03  0.81664820603E+02 0.  0.
       -6    2    1    2    0  503 -0.14464451980E+02  0.13099051438E+03  0.16461914797E+03  0.27242766634E+03  0.17248082294E+03 0.  0.
      -24    2    5    5    0    0 -0.63729716577E+02  0.89161704452E+02  0.58283809508E+02  0.14790453660E+03  0.80420539534E+02 0.  0.
        5    1    3    3  501    0 -0.18756667499E+02  0.93408038776E+01  0.55166439532E+02  0.59198726704E+02  0.47000000000E+01 0. -1.
      -13    1    4    4    0    0  0.10667859660E+02 -0.13218399362E+03  0.23897660748E+02  0.13474980366E+03  0.00000000000E+00 0.  1.
       14    1    4    4    0    0  0.22553259819E+02 -0.81473246447E+01 -0.19695274819E+02  0.31031150116E+02  0.00000000000E+00 0. -1.
       -5    1    5    5    0  503  0.49265264597E+02  0.41828809931E+02  0.10633533846E+03  0.12452312975E+03  0.47000000000E+01 0.  1.
        1    1    6    6  502    0 -0.20614967790E+02 -0.80762925560E+01 -0.68533863388E+01  0.23176977861E+02  0.00000000000E+00 0. -1.
       -2    1    6    6    0  502 -0.43114748787E+02  0.97237997008E+02  0.65137195847E+02  0.12472755873E+03  0.00000000000E+00 0.  1.
</event>
<event>
12   0  0.1523332E-01  0.2177200E+03  0.7957747E-01  0.1142306E+00
       21   -1    0    0  501  503  0.00000000000E+00  0.00000000000E+00  0.37196441597E+03  0.37196441597E+03  0.00000000000E+00 0.  1.
       21   -1    0    0  503  504  0.00000000000E+00  0.00000000000E+00 -0.12959300008E+03  0.12959300008E+03  0.00000000000E+00 0. -1.
        6    2    1    2  501    0  0.13185663642E+03 -0.43212125245E+01  0.15927185423E+03  0.26851761383E+03  0.17125810913E+03 0.  0.
       24    2    3    3    0    0  0.71510850017E+02 -0.34106489030E+02  0.16622063138E+03  0.20070056482E+03  0.79839615219E+02 0.  0.
       -6    2    1    2    0  504 -0.13185663642E+03  0.43212125245E+01  0.83099561659E+02  0.23303980221E+03  0.17319690188E+03 0.  0.
      -24    2    5    5    0    0 -0.38270805846E+02 -0.35986801234E+02 -0.37460370461E+01  0.99072299913E+02  0.83914142869E+02 0.  0.
        5    1    3    3  501    0  0.60345786403E+02  0.29785276505E+02 -0.69487771500E+01  0.67817049014E+02  0.47000000000E+01 0. -1.
        4    1    4    4  502    0  0.44034667617E+02 -0.60072500430E+02  0.10464263328E+03  0.12844390978E+03  0.00000000000E+00 0. -1.
       -3    1    4    4    0  502  0.27476182400E+02  0.25966011401E+02  0.61577998097E+02  0.72256655036E+02  0.00000000000E+00 0.  1.
       -5    1    5    5    0  504 -0.93585830574E+02  0.40308013759E+02  0.86845598705E+02  0.13396750230E+03  0.47000000000E+01 0.  1.
       13    1    6    6    0    0 -0.37529299178E+02 -0.62063007760E+02  0.11162865085E+01  0.72536275922E+02  0.00000000000E+00 0. -1.
      -14    1    6    6    0    0 -0.74150666764E+00  0.26076206526E+02 -0.48623235546E+01  0.26536023991E+02  0.00000000000E+00 0.  1.
</event>
<event>
12   0  0.1523332E-01  0.4017134E+03  0.7957747E-01  0.1052452E+00
       -2   -1    0    0    0  501  0.00000000000E+00  0.00000000000E+00  0.20085674267E+03  0.20085674267E+03  0.00000000000E+00 0. -1.
        2   -1    0    0  502    0  0.00000000000E+00  0.00000000000E+00 -0.82352781211E+03  0.82352781211E+03  0.00000000000E+00 0.  1.
        6    2    1    2  502    0 -0.36157486136E+03 -0.33680658402E+02 -0.39104174731E+03  0.56031670268E+03  0.17079341923E+03 0.  0.
       24    2    3    3    0    0 -0.30463975986E+03  0.10701200512E+02 -0.36808034565E+03  0.48441761738E+03  0.79103654751E+02 0.  0.
       -6    2    1    2    0  501  0.36157486136E+03  0.33680658402E+02 -0.23162932212E+03  0.46406785210E+03  0.17273118239E+03 0.  0.
      -24    2    5    5    0    0  0.25322637165E+03  0.36026385208E+02 -0.23309721657E+03  0.35558217392E+03  0.81748848965E+02 0.  0.
        5    1    3    3  502    0 -0.56935101495E+02 -0.44381858914E+02 -0.22961401654E+02  0.75899085296E+02  0.47000000000E+01 0. -1.
        4    1    4    4  503    0 -0.10422807543E+03  0.19258790838E+02 -0.77412013406E+02  0.13125171447E+03  0.00000000000E+00 0. -1.
       -3    1    4    4    0  503 -0.20041168444E+03 -0.85575903257E+01 -0.29066833225E+03  0.35316590291E+03  0.00000000000E+00 0.  1.
       -5    1    5    5    0  501  0.10834848971E+03 -0.23457268057E+01  0.14678944454E+01  0.10848567818E+03  0.47000000000E+01 0.  1.
       13    1    6    6    0    0  0.16472500055E+03  0.17229370510E+02 -0.96339317124E+02  0.19160490870E+03  0.00000000000E+00 0. -1.
      -14    1    6    6    0    0  0.88501371099E+02  0.18797014699E+02 -0.13675789945E+03  0.16397726522E+03  0.00000000000E+00 0.  1.
</event>
<event>
12   0  0.1523332E-01  0.4248044E+03  0.7957747E-01  0.1044952E+00
       21   -1    0    0  504  503  0.00000000000E+00  0.00000000000E+00  0.28226732054E+03  0.28226732054E+03  0.00000000000E+00 0.  1.
       21   -1    0    0  501  504  0.00000000000E+00  0.00000000000E+00 -0.70305168469E+03  0.70305168469E+03  0.00000000000E+00 0. -1.
        6    2    1    2  501    0  0.30436769740E+03 -0.23677793257E+03 -0.36278183216E+03  0.55863178173E+03  0.17820023919E+03 0.  0.
       24    2    3    3    0    0  0.12502774315E+03 -0.15044560937E+03 -0.11506929745E+03  0.24082731501E+03  0.80566956646E+02 0.  0.
       -6    2    1    2    0  503 -0.30436769740E+03  0.23677793257E+03 -0.58002531987E+02  0.42668722350E+03  0.17318836107E+03 0.  0.
      -24    2    5    5    0    0 -0.24081177550E+03  0.24769553868E+03 -0.53909540454E+02  0.36189994147E+03  0.93391316456E+02 0.  0.
        5    1    3    3  501    0  0.17933995426E+03 -0.86332323200E+02 -0.24771253470E+03  0.31780446673E+03  0.47000000000E+01 0. -1.
        4    1    4    4  502    0  0.13427576978E+03 -0.12259032737E+03 -0.93868912914E+02  0.20462097528E+03  0.00000000000E+00 0. -1.
       -3    1    4    4    0  502 -0.92480266303E+01 -0.27855281995E+02 -0.21200384540E+02  0.36206339724E+02  0.00000000000E+00 0.  1.
       -5    1    5    5    0  503 -0.63555921907E+02 -0.10917606111E+02 -0.40929915331E+01  0.64787282026E+02  0.47000000000E+01 0.  1.
       11    1    6    6    0    0 -0.28827348409E+02  0.38059080628E+02  0.24447196142E+02  0.53639304933E+02  0.00000000000E+00 0. -1.
      -12    1    6    6    0    0 -0.21198442709E+03  0.20963645805E+03 -0.78356736596E+02  0.30826063654E+03  0.00000000000E+00 0.  1.
</event>
<event>
12   0  0.1523332E-01  0.1862046E+03  0.7957747E-01  0.1167757E+00
       -2   -1    0    0    0  501  0.00000000000E+00  0.00000000000E+00  0.73190431546E+03  0.73190431546E+03  0.00000000000E+00 0. -1.
        2   -1    0    0  502    0  0.00000000000E+00  0.00000000000E+00 -0.57144318982E+02  0.57144318982E+02  0.00000000000E+00 0.  1.
        6    2    1    2  502    0 -0.34979077946E+02  0.56840115694E+02  0.17516141354E+03  0.25609170249E+03  0.17449098729E+03 0.  0.
       24    2    3    3    0    0 -0.28064560951E+02  0.10558306685E+03  0.13695059256E+03  0.19359496119E+03  0.82390173013E+02 0.  0.
       -6    2    1    2    0  501  0.34979077946E+02 -0.56840115694E+02  0.49959858295E+03  0.53295693196E+03  0.17317624720E+03 0.  0.
      -24    2    5    5    0    0 -0.24545828798E+02  0.14634971681E+02  0.31577861101E+03  0.32688952861E+03  0.79523283625E+02 0.  0.
        5    1    3    3  502    0 -0.69145169944E+01 -0.48742951159E+02  0.38210820978E+02  0.62496741297E+02  0.47000000000E+01 0. -1.
      -11    1    4    4    0    0  0.19515682381E+02  0.42069344233E+02  0.16245285979E+02  0.49138588701E+02  0.00000000000E+00 0.  1.
       12    1    4    4    0    0 -0.47580243332E+02  0.63513722620E+02  0.12070530658E+03  0.14445637249E+03  0.00000000000E+00 0. -1.
       -5    1    5    5    0  501  0.59524906743E+02 -0.71475087376E+02  0.18381997194E+03  0.20606740335E+03  0.47000000000E+01 0.  1.
        1    1    6    6  503    0 -0.46829942367E+02 -0.13030319767E+02  0.19731219757E+03  0.20321155490E+03  0.00000000000E+00 0. -1.
       -2    1    6    6    0  503  0.22284113569E+02  0.27665291448E+02  0.11846641344E+03  0.12367797371E+03  0.00000000000E+00 0.  1.
</event>
<event>
12   0  0.1523332E-01  0.2602511E+03  0.7957747E-01  0.1114585E+00
       -2   -1    0    0    0  501  0.00000000000E+00  0.00000000000E+00  0.61068581607E+03  0.61068581607E+03  0.00000000000E+00 0. -1.
        2   -1    0    0  502    0  0.00000000000E+00  0.00000000000E+00 -0.74402165827E+03  0.74402165827E+03  0.00000000000E+00 0.  1.
        6    2    1    2  502    0 -0.91146993924E+02  0.17989068774E+03  0.55793572210E+03  0.61779839612E+03  0.17237794005E+03 0.  0.
       24    2    3    3    0    0 -0.32285940024E+02  0.16359884908E+03  0.29842743209E+03  0.35115876993E+03  0.80290622902E+02 0.  0.
       -6    2    1    2    0  501  0.91146993924E+02 -0.17989068774E+03 -0.69127156431E+03  0.73690907822E+03  0.15655727358E+03 0.  0.
      -24    2    5    5    0    0  0.70973679313E+02 -0.11303344309E+03 -0.28392245842E+03  0.32359051120E+03  0.79278207142E+02 0.  0.
        5    1    3    3  502    0 -0.58861053899E+02  0.16291838653E+02  0.25950829001E+03  0.26663962620E+03  0.47000000000E+01 0. -1.
      -13    1    4    4    0    0 -0.26199668261E+02  0.35027027625E+02  0.28765694933E+02  0.52352463994E+02  0.00000000000E+00 0.  1.
       14    1    4    4    0    0 -0.60862717629E+01  0.12857182146E+03  0.26966173716E+03  0.29880630593E+03  0.00000000000E+00 0. -1.
       -5    1    5    5    0  501  0.20173314611E+02 -0.66857244645E+02 -0.40734910588E+03  0.41331856702E+03  0.47000000000E+01 0.  1.
        1    1    6    6  503    0  0.24828449013E+02 -0.10493808229E+03 -0.21007759734E+03  0.23613777737E+03  0.00000000000E+00 0. -1.
       -2    1    6    6    0  503  0.46145230300E+02 -0.80953607966E+01 -0.73844861085E+02  0.87452733831E+02  0.00000000000E+00 0.  1.
</event>
<event>
12   0  0.1523332E-01  0.2432313E+03  0.7957747E-01  0.1124933E+00
       21   -1    0    0  501  503  0.00000000000E+00  0.00000000000E+00  0.84448769611E+02  0.84448769611E+02  0.00000000000E+00 0.  1.
       21   -1    0    0  503  504  0.00000000000E+00  0.00000000000E+00 -0.70701762642E+03  0.70701762642E+03  0.00000000000E+00 0. -1.
        6    2    1    2  501    0 -0.10089116383E+03  0.13557193677E+03 -0.26506809832E+03  0.35975349905E+03  0.17493629228E+03 0.  0.
       24    2    3    3    0    0 -0.53159851561E+02  0.12027727721E+03 -0.92042862005E+02  0.17955353462E+03  0.80467323274E+02 0.  0.
       -6    2    1    2    0  504  0.10089116383E+03 -0.13557193677E+03 -0.35750075849E+03  0.43171289698E+03  0.17323526234E+03 0.  0.
      -24    2    5    5    0    0  0.83329477071E+01 -0.79656939379E+02 -0.26905169112E+03  0.29193150400E+03  0.80128175581E+02 0.  0.
        5    1    3    3  501    0 -0.47731312269E+02  0.15294659558E+02 -0.17302523632E+03  0.18019996444E+03  0.47000000000E+01 0. -1.
        4    1    4    4  502    0 -0.31811833215E+02  0.32182818238E+02  0.64376279651E+01  0.45707434582E+02  0.00000000000E+00 0. -1.
       -3    1    4    4    0  502 -0.21348018346E+02  0.88094458975E+02 -0.98480489970E+02  0.13384610003E+03  0.00000000000E+00 0.  1.
       -5    1    5    5    0  504  0.92558216122E+02 -0.55914997393E+02 -0.88449067369E+02  0.13978139298E+03  0.47000000000E+01 0.  1.
       11    1    6    6    0    0  0.35867681156E+02 -0.75910157556E+02 -0.17943708031E+03  0.19810731527E+03  0.00000000000E+00 0. -1.
      -12    1    6    6    0    0 -0.27534733449E+02 -0.37467818224E+01 -0.89614610810E+02  0.93824188730E+02  0.00000000000E+00 0.  1.
</event>
<event>
12   0  0.1523332E-01  0.1776455E+03  0.7957747E-01  0.1175639E+00
       21   -1    0    0  501  503  0.00000000000E+00  0.00000000000E+00  0.17324458987E+03  0.17324458987E+03  0.00000000000E+00 0. -1.
       21   -1    0    0  503  504  0.00000000000E+00  0.00000000000E+00 -0.27620581336E+03  0.27620581336E+03  0.00000000000E+00 0. -1.
        6    2    1    2  501    0 -0.29109209084E+02  0.10834518154E+02  0.80837001195E+02  0.19383407974E+03  0.17341365826E+03 0.  0.
       24    2    3    3    0    0 -0.85754023924E+02  0.14863385631E+02  0.60220006624E+02  0.13323690748E+03  0.80937948240E+02 0.  0.
       -6    2    1    2    0  504  0.29109209084E+02 -0.10834518154E+02 -0.18379822469E+03  0.25561632349E+03  0.17490907523E+03 0.  0.
      -24    2    5    5    0    0 -0.42375348882E+02 -0.18109006100E+02 -0.58976902691E+02  0.11151423250E+03  0.82665244839E+02 0.  0.
        5    1    3    3  501    0  0.56644814840E+02 -0.40288674777E+01  0.20616994571E+02  0.60597172265E+02  0.47000000000E+01 0. -1.
      -13    1    4    4    0    0 -0.32892302537E+02 -0.18760529054E+02 -0.99672578899E+01  0.39156190397E+02  0.00000000000E+00 0.  1.
       14    1    4    4    0    0 -0.52861721387E+02  0.33623914685E+02  0.70187264514E+02  0.94080717082E+02  0.00000000000E+00 0. -1.
       -5    1    5    5    0  504  0.71484557966E+02  0.72744879464E+01 -0.12482132200E+03  0.14410209099E+03  0.47000000000E+01 0.  1.
        3    1    6    6  502    0 -0.33506007380E+02 -0.45770470091E+02 -0.59840405254E+02  0.82452789909E+02  0.00000000000E+00 0. -1.
       -4    1    6    6    0  502 -0.88693415018E+01  0.27661463991E+02  0.86350256283E+00  0.29061442591E+02  0.00000000000E+00 0.  1.
</event>
<event>
12   0  0.1523332E-01  0.2012173E+03  0.7957747E-01  0.1154996E+00
       21   -1    0    0  501  503  0.00000000000E+00  0.00000000000E+00  0.41994335873E+03  0.41994335873E+03  0.00000000000E+00 0.  1.
       21   -1    0    0  503  504  0.00000000000E+00  0.00000000000E+00 -0.96807228237E+02  0.96807228237E+02  0.00000000000E+00 0. -1.
        6    2    1    2  501    0 -0.24923439995E+02  0.10024056462E+03  0.18223511669E+03  0.27147384384E+03  0.17268196628E+03 0.  0.
       24    2    3    3    0    0 -0.59173110471E+02  0.23924974103E+02  0.15015599886E+03  0.18176169815E+03  0.80103867141E+02 0.  0.
       -6    2    1    2    0  504  0.24923439995E+02 -0.10024056462E+03  0.14090101380E+03  0.24527674313E+03  0.17215759168E+03 0.  0.
      -24    2    5    5    0    0  0.58439086456E+02 -0.37757052379E+02  0.26967141193E+02  0.11099902648E+03  0.82175637178E+02 0.  0.
        5    1    3    3  501    0  0.34249670476E+02  0.76315590519E+02  0.32079117830E+02  0.89712145692E+02  0.47000000000E+01 0. -1.
        2    1    4    4  502    0  0.65085956833E+01 -0.21555962326E+02  0.31749174427E+02  0.38923404352E+02  0.00000000000E+00 0. -1.
       -1    1    4    4    0  502 -0.65681706155E+02  0.45480936429E+02  0.11840682443E+03  0.14283829379E+03  0.00000000000E+00 0.  1.
       -5    1    5    5    0  504 -0.33515646460E+02 -0.62483512242E+02  0.11393387261E+03  0.13427771664E+03  0.47000000000E+01 0.  1.
       11    1    6    6    0    0  0.11667966777E+01 -0.38217978122E+02 -0.13851849732E+02  0.40667542429E+02  0.00000000000E+00 0. -1.
      -12    1    6    6    0    0  0.57272289778E+02  0.46092574293E+00  0.40818990925E+02  0.70331484053E+02  0.00000000000E+00 0.  1.
</event>
<event>
12   0  0.1523332E-01  0.2242859E+03  0.7957747E-01  0.1137595E+00
       21   -1    0    0  504  503  0.00000000000E+00  0.00000000000E+00  0.72158197328E+02  0.72158197328E+02  0.00000000000E+00 0.  1.
       21   -1    0    0  501  504  0.00000000000E+00  0.00000000000E+00 -0.69921030512E+03  0.69921030512E+03  0.00000000000E+00 0.  1.
        6    2    1    2  501    0 -0.13945535924E+03  0.24923709745E+02 -0.34141862690E+03  0.40820099012E+03  0.17318308523E+03 0.  0.
       24    2    3    3    0    0 -0.13607813396E+03  0.68466620057E+02 -0.30531413043E+03  0.35134137919E+03  0.83780128237E+02 0.  0.
       -6    2    1    2    0  503  0.13945535924E+03 -0.24923709745E+02 -0.28563348088E+03  0.36316751232E+03  0.17388262731E+03 0.  0.
      -24    2    5    5    0    0  0.22297753800E+02  0.16746598538E+01 -0.19450981252E+03  0.21230668005E+03  0.82097898388E+02 0.  0.
        5    1    3    3  501    0 -0.33772252729E+01 -0.43542910312E+02 -0.36104496474E+02  0.56859610926E+02  0.47000000000E+01 0. -1.
        2    1    4    4  502    0 -0.25191134759E+02  0.98254292036E+01 -0.73055370354E+01  0.28008984288E+02  0.00000000000E+00 0. -1.
       -1    1    4    4    0  502 -0.11088699920E+03  0.58641190853E+02 -0.29800859340E+03  0.32333239490E+03  0.00000000000E+00 0.  1.
       -5    1    5    5    0  503  0.11715760544E+03 -0.26598369598E+02 -0.91123668365E+02  0.15086083227E+03  0.47000000000E+01 0.  1.
       11    1    6    6    0    0  0.29854243484E+02  0.27524485471E+02 -0.17339053643E+03  0.17808186679E+03  0.00000000000E+00 0. -1.
      -12    1    6    6    0    0 -0.75564896836E+01 -0.25849825617E+02 -0.21119276088E+02  0.34224813268E+02  0.00000000000E+00 0.  1.
</event>
<event>
12   0  0.1523332E-01  0.2034395E+03  0.7957747E-01  0.1153211E+00
       21   -1    0    0  504  503  0.00000000000E+00  0.00000000000E+00  0.40401233250E+03  0.40401233250E+03  0.00000000000E+00 0. -1.
       21   -1    0    0  501  504  0.00000000000E+00  0.00000000000E+00 -0.16075902791E+03  0.16075902791E+03  0.00000000000E+00 0. -1.
        6    2    1    2  501    0  0.51644743675E+02 -0.89587901565E+02 -0.48698701181E+02  0.20918698834E+03  0.17519834741E+03 0.  0.
       24    2    3    3    0    0  0.78392353741E+02 -0.40150273631E+01 -0.32252123423E+02  0.11791414811E+03  0.81866142505E+02 0.  0.
       -6    2    1    2    0  503 -0.51644743675E+02  0.89587901565E+02  0.29195200577E+03  0.35558437207E+03  0.17467426923E+03 0.  0.
      -24    2    5    5    0    0  0.29086635553E+02  0.13828645694E+02  0.85780549195E+02  0.12152074835E+03  0.79823090957E+02 0.  0.
        5    1    3    3  501    0 -0.26747610066E+02 -0.85572874202E+02 -0.16446577758E+02  0.91272840229E+02  0.47000000000E+01 0. -1.
      -11    1    4    4    0    0 -0.14283843502E+02  0.12377346653E+02 -0.91835887950E+01  0.21013452799E+02  0.00000000000E+00 0.  1.
       12    1    4    4    0    0  0.92676197244E+02 -0.16392374016E+02 -0.23068534628E+02  0.96900695309E+02  0.00000000000E+00 0. -1.
       -5    1    5    5    0  503 -0.80731379229E+02  0.75759255871E+02  0.20617145658E+03  0.23406362372E+03  0.47000000000E+01 0.  1.
        3    1    6    6  502    0 -0.94675096629E+01  0.34173897469E+02  0.63097399808E+02  0.72379353893E+02  0.00000000000E+00 0. -1.
       -4    1    6    6    0  502  0.38554145216E+02 -0.20345251774E+02  0.22683149387E+02  0.49141394458E+02  0.00000000000E+00 0.  1.
</event>
<event>
12   0  0.1523332E-01  0.1958826E+03  0.7957747E-01  0.1159386E+00
       21   -1    0    0  501  503  0.00000000000E+00  0.00000000000E+00  0.31623134075E+03  0.31623134075E+03  0.00000000000E+00 0. -1.
       21   -1    0    0  503  504  0.00000000000E+00  0.00000000000E+00 -0.14289814687E+03  0.14289814687E+03  0.00000000000E+00 0.  1.
        6    2    1    2  501    0  0.66049671834E+02 -0.64864530029E+02 -0.25334089601E+01  0.19588237842E+03  0.17260799985E+03 0.  0.
       24    2    3    3    0    0  0.34994042635E+02  0.32715988015E+02 -0.57568821663E+01  0.93320736540E+02  0.79879279444E+02 0.  0.
       -6    2    1    2    0  504 -0.66049671834E+02  0.64864530029E+02  0.17586660283E+03  0.26324710920E+03  0.17262680007E+03 0.  0.
      -24    2    5    5    0    0  0.25211749204E+02  0.22470333600E+02  0.73662840500E+02  0.11974235703E+03  0.88155940274E+02 0.  0.
        5    1    3    3  501    0  0.31055629199E+02 -0.97580518043E+02  0.32234732062E+01  0.10256164188E+03  0.47000000000E+01 0. -1.
      -11    1    4    4    0    0  0.66684276842E+01 -0.21819245055E+02 -0.19885091134E+02  0.30264900990E+02  0.00000000000E+00 0.  1.
       12    1    4    4    0    0  0.28325614950E+02  0.54535233070E+02  0.14128208968E+02  0.63055835550E+02  0.00000000000E+00 0. -1.
       -5    1    5    5    0  504 -0.91261421038E+02  0.42394196429E+02  0.10220376233E+03  0.14350475217E+03  0.47000000000E+01 0.  1.
        1    1    6    6  502    0 -0.13473612511E+02  0.20163773299E+02  0.77111631773E+02  0.80835139281E+02  0.00000000000E+00 0. -1.
       -2    1    6    6    0  502  0.38685361715E+02  0.23065603001E+01 -0.34487912734E+01  0.38907217745E+02  0.00000000000E+00 0.  1.
</event>
<event>
12   0  0.1523332E-01  0.1781866E+03  0.7957747E-01  0.1175127E+00
       21   -1    0    0  501  503  0.00000000000E+00  0.00000000000E+00  0.35725909909E+03  0.35725909909E+03  0.00000000000E+00 0. -1.
       21   -1    0    0  503  504  0.00000000000E+00  0.00000000000E+00 -0.88301539312E+02  0.88301539312E+02  0.00000000000E+00 0. -1.
        6    2    1    2  501    0 -0.23274049678E+02  0.19931266286E+02  0.11357700651E+03  0.20914242703E+03  0.17292160539E+03 0.  0.
       24    2    3    3    0    0  0.46829125143E+00  0.19602030003E+01 -0.15082167737E+02  0.76998827159E+02  0.75480367698E+02 0.  0.
       -6    2    1    2    0  504  0.23274049678E+02 -0.19931266286E+02  0.15538055327E+03  0.23641821137E+03  0.17553209841E+03 0.  0.
      -24    2    5    5    0    0 -0.29645890370E+02  0.18860482028E+02  0.45630300074E+02  0.10846303224E+03  0.91910328466E+02 0.  0.
        5    1    3    3  501    0 -0.23742340929E+02  0.17971063285E+02  0.12865917425E+03  0.13214359987E+03  0.47000000000E+01 0. -1.
        4    1    4    4  502    0  0.33327151184E+01  0.28201504483E+02 -0.34165189430E+02  0.44426253657E+02  0.00000000000E+00 0. -1.
       -3    1    4    4    0  502 -0.28644238670E+01 -0.26241301483E+02  0.19083021693E+02  0.32572573502E+02  0.00000000000E+00 0.  1.
       -5    1    5    5    0  504  0.52919940048E+02 -0.38791748313E+02  0.10975025319E+03  0.12795517914E+03  0.47000000000E+01 0.  1.
       13    1    6    6    0    0 -0.47078954581E+01 -0.31066018100E+02  0.42114451962E+02  0.52544160706E+02  0.00000000000E+00 0. -1.
      -14    1    6    6    0    0 -0.24937994912E+02  0.49926500127E+02  0.35158481113E+01  0.55918871530E+02  0.00000000000E+00 0.  1.
</event>
<event>
12   0  0.1523332E-01  0.2039195E+03  0.7957747E-01  0.1152828E+00
       21   -1    0    0  504  503  0.00000000000E+00  0.00000000000E+00  0.17095972378E+03  0.17095972378E+03  0.00000000000E+00 0.  1.
       21   -1    0    0  501  504  0.00000000000E+00  0.00000000000E+00 -0.29400139815E+03  0.29400139815E+03  0.00000000000E+00 0.  1.
        6    2    1    2  501    0  0.37127865022E+02  0.10487410562E+03 -0.16533353994E+03  0.26252306728E+03  0.17089799600E+03 0.  0.
       24    2    3    3    0    0 -0.28904299624E+02  0.72554900762E+01 -0.60925924616E+02  0.10500265271E+03  0.80159142421E+02 0.  0.
       -6    2    1    2    0  503 -0.37127865022E+02 -0.10487410562E+03  0.42291865571E+02  0.20243805465E+03  0.16375441272E+03 0.  0.
      -24    2    5    5    0    0 -0.73691618996E+02 -0.85829575371E+02  0.66903813190E+02  0.15419450376E+03  0.80639035528E+02 0.  0.
        5    1    3    3  501    0  0.66032164646E+02  0.97618615547E+02 -0.10440761532E+03  0.15752041457E+03  0.47000000000E+01 0. -1.
      -13    1    4    4    0    0 -0.27648916248E+02  0.58819477990E+01 -0.80511065126E+02  0.85329312006E+02  0.00000000000E+00 0.  1.
       14    1    4    4    0    0 -0.12553833757E+01  0.13735422772E+01  0.19585140510E+02  0.19673340708E+02  0.00000000000E+00 0. -1.
       -5    1    5    5    0  503  0.36563753974E+02 -0.19044530252E+02 -0.24611947618E+02  0.48243550893E+02  0.47000000000E+01 0.  1.
        3    1    6    6  502    0  0.17070085836E+02 -0.21430328757E+02  0.16883501729E+02  0.32182284749E+02  0.00000000000E+00 0. -1.
       -4    1    6    6    0  502 -0.90761704832E+02 -0.64399246615E+02  0.50020311461E+02  0.12201221901E+03  0.00000000000E+00 0.  1.
</event>
<event>
12   0  0.1523332E-01  0.1814892E+03  0.7957747E-01  0.1172040E+00
       21   -1    0    0  501  503  0.00000000000E+00  0.00000000000E+00  0.34521067462E+03  0.34521067462E+03  0.00000000000E+00 0.  1.
       21   -1    0    0  503  504  0.00000000000E+00  0.00000000000E+00 -0.94571681147E+02  0.94571681147E+02  0.00000000000E+00 0.  1.
        6    2    1    2  501    0 -0.28459586344E+02  0.41538761590E+02  0.13012108916E+03  0.22331549639E+03  0.17436426330E+03 0.  0.
       24    2    3    3    0    0 -0.85009646047E+02  0.41817009061E+02  0.86319506581E+02  0.15163108170E+03  0.81028547757E+02 0.  0.
       -6    2    1    2    0  504  0.28459586344E+02 -0.41538761590E+02  0.12051790431E+03  0.21646685937E+03  0.17262073797E+03 0.  0.
      -24    2    5    5    0    0  0.77949169286E+02 -0.13741784540E+02  0.11066069085E+03  0.15866421748E+03  0.81631095626E+02 0.  0.
        5    1    3    3  501    0  0.56550059703E+02 -0.27824747095E+00  0.43801582575E+02  0.71684414695E+02  0.47000000000E+01 0. -1.
      -13    1    4    4    0    0 -0.27929481737E+02  0.63911585218E+01  0.79022245242E+02  0.84056041427E+02  0.00000000000E+00 0.  1.
       14    1    4    4    0    0 -0.57080164311E+02  0.35425850540E+02  0.72972613394E+01  0.67575040268E+02  0.00000000000E+00 0. -1.
       -5    1    5    5    0  504 -0.49489582942E+02 -0.27796977050E+02  0.98572134604E+01  0.57802641895E+02  0.47000000000E+01 0.  1.
        1    1    6    6  502    0  0.54495602337E+02  0.25628971110E+02  0.90249788668E+02  0.10849718517E+03  0.00000000000E+00 0. -1.
       -2    1    6    6    0  502  0.23453566949E+02 -0.39370755650E+02  0.20410902186E+02  0.50167032313E+02  0.00000000000E+00 0.  1.
</event>
<event>
12   0  0.1523332E-01  0.1897804E+03  0.7957747E-01  0.1164600E+00
       21   -1    0    0  501  503  0.00000000000E+00  0.00000000000E+00  0.35351160196E+03  0.35351160196E+03  0.00000000000E+00 0.  1.
       21   -1    0    0  503  504  0.00000000000E+00  0.00000000000E+00 -0.20116652398E+03  0.20116652398E+03  0.00000000000E+00 0.  1.
        6    2    1    2  501    0  0.99419130863E+01  0.76088914330E+02  0.27114074449E+03  0.33095906092E+03  0.17357486039E+03 0.  0.
       24    2    3    3    0    0  0.44303422189E+02  0.10229536993E+03  0.24408359702E+03  0.27975680655E+03  0.79119735524E+02 0.  0.
       -6    2    1    2    0  504 -0.99419130863E+01 -0.76088914330E+02 -0.11879566652E+03  0.22371906502E+03  0.17334775784E+03 0.  0.
      -24    2    5    5    0    0  0.41148686408E+02 -0.98809472935E+02 -0.78330059273E+02  0.15453793674E+03  0.79308570606E+02 0.  0.
        5    1    3    3  501    0 -0.34361509102E+02 -0.26206455602E+02  0.27057147476E+02  0.51202254370E+02  0.47000000000E+01 0. -1.
        4    1    4    4  502    0  0.40112360273E+02  0.75827344604E+02  0.93834077557E+02  0.12713623302E+03  0.00000000000E+00 0. -1.
       -3    1    4    4    0  502  0.41910619160E+01  0.26468025328E+02  0.15024951946E+03  0.15262057352E+03  0.00000000000E+00 0.  1.
       -5    1    5    5    0  504 -0.51090599494E+02  0.22720558604E+02 -0.40465607243E+02  0.69181128276E+02  0.47000000000E+01 0.  1.
       13    1    6    6    0    0 -0.13566832649E+02  0.93281635386E+00  0.39227408551E+01  0.14153338486E+02  0.00000000000E+00 0. -1.
      -14    1    6    6    0    0  0.54715519057E+02 -0.99742289288E+02 -0.82252800128E+02  0.14038459825E+03  0.00000000000E+00 0.  1.
</event>
<event>
12   0  0.1523332E-01  0.2252389E+03  0.7957747E-01  0.1136926E+00
       -2   -1    0    0    0  501  0.00000000000E+00  0.00000000000E+00  0.42722835044E+03  0.42722835044E+03  0.00000000000E+00 0.  1.
        2   -1    0    0  502    0  0.00000000000E+00  0.00000000000E+00 -0.13050870023E+03  0.13050870023E+03  0.00000000000E+00 0. -1.
        6    2    1    2  502    0  0.14127803220E+03 -0.32348290255E+02  0.64333508470E+02  0.23374085008E+03  0.17172679005E+03 0.  0.
       24    2    3    3    0    0  0.69793759870E+02 -0.37677373361E+02 -0.27345530360E+02  0.11726966704E+03  0.81936825651E+02 0.  0.
       -6    2    1    2    0  501 -0.14127803220E+03  0.32348290255E+02  0.23238614175E+03  0.32399620059E+03  0.17310206485E+03 0.  0.
      -24    2    5    5    0    0 -0.11222636882E+03  0.97046707559E+01  0.24825547093E+03  0.28361479078E+03  0.78215293970E+02 0.  0.
        5    1    3    3  502    0  0.71484272332E+02  0.53290831061E+01  0.91679038830E+02  0.11647118304E+03  0.47000000000E+01 0. -1.
        2    1    4    4  503    0  0.65613583854E+02 -0.15328333720E+02 -0.50965840227E+02  0.84484419101E+02  0.00000000000E+00 0. -1.
       -1    1    4    4    0  503  0.41801760156E+01 -0.22349039642E+02  0.23620309867E+02  0.32785247942E+02  0.00000000000E+00 0.  1.
       -5    1    5    5    0  501 -0.29051663379E+02  0.22643619499E+02 -0.15869329184E+02  0.40381409805E+02  0.47000000000E+01 0.  1.
       13    1    6    6    0    0 -0.24136002993E+02 -0.20678324927E+02  0.21260565597E+02  0.38238088495E+02  0.00000000000E+00 0. -1.
      -14    1    6    6    0    0 -0.88090365829E+02  0.30382995682E+02  0.22699490533E+03  0.24537670229E+03  0.00000000000E+00 0.  1.
</event>
<event>
12   0  0.1523332E-01  0.2240208E+03  0.7957747E-01  0.1137782E+00
       21   -1    0    0  504  503  0.00000000000E+00  0.00000000000E+00  0.64632126747E+03  0.64632126747E+03  0.00000000000E+00 0.  1.
       21   -1    0    0  501  504  0.00000000000E+00  0.00000000000E+00 -0.79812719712E+02  0.79812719712E+02  0.00000000000E+00 0. -1.
        6    2    1    2  501    0  0.15045147338E+02  0.14195243788E+03  0.22058142590E+03  0.31400428566E+03  0.17194672106E+03 0.  0.
       24    2    3    3    0    0  0.19555049289E+02  0.22216350592E+02  0.39693474949E+02  0.96979838617E+02  0.83387954516E+02 0.  0.
       -6    2    1    2    0  503 -0.15045147338E+02 -0.14195243788E+03  0.34592712186E+03  0.41212970153E+03  0.17265128486E+03 0.  0.
      -24    2    5    5    0    0  0.46823438927E+02 -0.51528239860E+02  0.11256440744E+03  0.15428380950E+03  0.79278963886E+02 0.  0.
        5    1    3    3  501    0 -0.45099019514E+01  0.11973608729E+03  0.18088795095E+03  0.21702444704E+03  0.47000000000E+01 0. -1.
      -13    1    4    4    0    0  0.48646637656E+02  0.11493493942E+02  0.42818269814E+02  0.65817930597E+02  0.00000000000E+00 0.  1.
       14    1    4    4    0    0 -0.29091588368E+02  0.10722856650E+02 -0.31247948647E+01  0.31161908020E+02  0.00000000000E+00 0. -1.
       -5    1    5    5    0  503 -0.61868586264E+02 -0.90424198020E+02  0.23336271443E+03  0.25784589203E+03  0.47000000000E+01 0.  1.
        1    1    6    6  502    0 -0.17395482058E+01 -0.45730683493E+02  0.20734220213E+02  0.50241709052E+02  0.00000000000E+00 0. -1.
       -2    1    6    6    0  502  0.48562987132E+02 -0.57975563675E+01  0.91830187224E+02  0.10404210044E+03  0.00000000000E+00 0.  1.
</event>
<event>
12   0  0.1523332E-01  0.1854180E+03  0.7957747E-01  0.1168462E+00
       21   -1    0    0  501  503  0.00000000000E+00  0.00000000000E+00  0.68557257650E+02  0.68557257650E+02  0.00000000000E+00 0. -1.
       21   -1    0    0  503  504  0.00000000000E+00  0.00000000000E+00 -0.56436243554E+03  0.56436243554E+03  0.00000000000E+00 0. -1.
        6    2    1    2  501    0  0.46502499143E+02  0.46847403611E+02 -0.14106268873E+03  0.23297749107E+03  0.17327050395E+03 0.  0.
       24    2    3    3    0    0  0.73660819188E+02  0.10588798166E+02 -0.30463790115E+02  0.11336784600E+03  0.79913622551E+02 0.  0.
       -6    2    1    2    0  504 -0.46502499143E+02 -0.46847403611E+02 -0.35474248916E+03  0.39994220212E+03  0.17249454999E+03 0.  0.
      -24    2    5    5    0    0 -0.78899931814E+02 -0.66518537502E+02 -0.32778475130E+03  0.35319440236E+03  0.81569158408E+02 0.  0.
        5    1    3    3  501    0 -0.27158320045E+02  0.36258605445E+02 -0.11059889862E+03  0.11960964506E+03  0.47000000000E+01 0. -1.
      -11    1    4    4    0    0  0.32386707812E+02  0.40777855854E+02 -0.33866741416E+02  0.62118343064E+02  0.00000000000E+00 0.  1.
       12    1    4    4    0    0  0.41274111376E+02 -0.30189057688E+02  0.34029513012E+01  0.51249502939E+02  0.00000000000E+00 0. -1.
       -5    1    5    5    0  504  0.32397432671E+02  0.19671133891E+02 -0.26957737855E+02  0.46747799761E+02  0.47000000000E+01 0.  1.
        3    1    6    6  502    0 -0.22624748188E+02  0.12224656645E+02 -0.13557310088E+03  0.13799053280E+03  0.00000000000E+00 0. -1.
       -4    1    6    6    0  502 -0.56275183626E+02 -0.78743194147E+02 -0.19221165042E+03  0.21520386956E+03  0.00000000000E+00 0.  1.
</event>
<event>
12   0  0.1523332E-01  0.1821864E+03  0.7957747E-01  0.1171398E+00
        2   -1    0    0  502    0  0.00000000000E+00  0.00000000000E+00  0.47397525220E+03  0.47397525220E+03  0.00000000000E+00 0.  1.
       -2   -1    0    0    0  501  0.00000000000E+00  0.00000000000E+00 -0.70309558915E+02  0.70309558915E+02  0.00000000000E+00 0. -1.
        6    2    1    2  502    0 -0.44829752552E+02  0.34495289571E+02  0.21990375775E+03  0.28610082710E+03  0.17405857887E+03 0.  0.
       24    2    3    3    0    0  0.31722308290E+02 -0.61910461705E+01  0.15579444899E+03  0.17817636553E+03  0.80188983049E+02 0.  0.
       -6    2    1    2    0  501  0.44829752552E+02 -0.34495289571E+02  0.18376193553E+03  0.25818398401E+03  0.17231044348E+03 0.  0.
      -24    2    5    5    0    0  0.34910449691E+02  0.13230599162E+02  0.25760085348E+02  0.92766851627E+02  0.80921681346E+02 0.  0.
        5    1    3    3  502    0 -0.76552060842E+02  0.40686335741E+02  0.64109308764E+02  0.10792446157E+03  0.47000000000E+01 0. -1.
        2    1    4    4  503    0  0.56057505733E+02 -0.12873625776E+02  0.81801746649E+02  0.99998499711E+02  0.00000000000E+00 0. -1.
       -1    1    4    4    0  503 -0.24335197443E+02  0.66825796051E+01  0.73992702339E+02  0.78177865820E+02  0.00000000000E+00 0.  1.
       -5    1    5    5    0  501  0.99193028606E+01 -0.47725888732E+02  0.15800185018E+03  0.16541713238E+03  0.47000000000E+01 0.  1.
       13    1    6    6    0    0 -0.18359006283E+02 -0.19017594978E+02  0.36314937141E+01  0.26681637451E+02  0.00000000000E+00 0. -1.
      -14    1    6    6    0    0  0.53269455974E+02  0.32248194140E+02  0.22128591634E+02  0.66085214177E+02  0.00000000000E+00 0.  1.
</event>
<event>
12   0  0.1523332E-01  0.1762288E+03  0.7957747E-01  0.1176991E+00
       21   -1    0    0  504  503  0.00000000000E+00  0.00000000000E+00  0.73573871729E+02  0.73573871729E+02  0.00000000000E+00 0. -1.
       21   -1    0    0  501  504  0.00000000000E+00  0.00000000000E+00 -0.42157072284E+03  0.42157072284E+03  0.00000000000E+00 0. -1.
        6    2    1    2  501    0 -0.28765823249E+02  0.85578826655E+01 -0.20496953651E+03  0.27031299517E+03  0.17365452633E+03 0.  0.
       24    2    3    3    0    0 -0.65498955441E+02 -0.17757762870E+02 -0.67121909397E+02  0.12517204815E+03  0.80976784394E+02 0.  0.
       -6    2    1    2    0  503  0.28765823249E+02 -0.85578826655E+01 -0.14302731460E+03  0.22483159940E+03  0.17085586155E+03 0.  0.
      -24    2    5    5    0    0 -0.21599721672E+02 -0.59228393056E+02 -0.66681210177E+02  0.12016543295E+03  0.77580905937E+02 0.  0.
        5    1    3    3  501    0  0.36733132192E+02  0.26315645536E+02 -0.13784762711E+03  0.14514094702E+03  0.47000000000E+01 0. -1.
        2    1    4    4  502    0 -0.72983387415E+02  0.10216340809E+02 -0.60784780074E+02  0.95528728384E+02  0.00000000000E+00 0. -1.
       -1    1    4    4    0  502  0.74844319738E+01 -0.27974103679E+02 -0.63371293232E+01  0.29643319765E+02  0.00000000000E+00 0.  1.
       -5    1    5    5    0  503  0.50365544921E+02  0.50670510390E+02 -0.76346104425E+02  0.10466616645E+03  0.47000000000E+01 0.  1.
       13    1    6    6    0    0 -0.23584757620E+02 -0.88599159819E+01  0.11057938570E+02  0.27513940260E+02  0.00000000000E+00 0. -1.
      -14    1    6    6    0    0  0.19850359478E+01 -0.50368477074E+02 -0.77739148747E+02  0.92651492694E+02  0.00000000000E+00 0.  1.
</event>
<event>
12   0  0.1523332E-01  0.1966849E+03  0.7957747E-01  0.1158716E+00
       21   -1    0    0  501  503  0.00000000000E+00  0.00000000000E+00  0.55503089027E+03  0.55503089027E+03  0.00000000000E+00 0. -1.
       21   -1    0    0  503  504  0.00000000000E+00  0.00000000000E+00 -0.83938010142E+02  0.83938010142E+02  0.00000000000E+00 0.  1.
        6    2    1    2  501    0 -0.81909545963E+02  0.41381251460E+02  0.36813742203E+03  0.41696712278E+03  0.17295906536E+03 0.  0.
       24    2    3    3    0    0 -0.83605532306E+02 -0.23510635440E+02  0.30100019216E+03  0.32346134227E+03  0.80520117046E+02 0.  0.
       -6    2    1    2    0  504  0.81909545963E+02 -0.41381251460E+02  0.10295545810E+03  0.22200177763E+03  0.17396373538E+03 0.  0.
      -24    2    5    5    0    0  0.88829261125E+01  0.29124981302E+02  0.13385462183E+02  0.86543702076E+02  0.79896626080E+02 0.  0.
        5    1    3    3  501    0  0.16959863433E+01  0.64891886901E+02  0.67137229871E+02  0.93505780516E+02  0.47000000000E+01 0. -1.
      -13    1    4    4    0    0 -0.29215557328E+02 -0.36305622582E+01  0.17804260160E+02  0.34405253263E+02  0.00000000000E+00 0.  1.
       14    1    4    4    0    0 -0.54389974978E+02 -0.19880073182E+02  0.28319593200E+03  0.28905608900E+03  0.00000000000E+00 0. -1.
       -5    1    5    5    0  504  0.73026619851E+02 -0.70506232763E+02  0.89569995918E+02  0.13545807556E+03  0.47000000000E+01 0.  1.
        3    1    6    6  502    0 -0.19971238299E+02 -0.15580643682E+02 -0.11482020654E+02  0.27810854267E+02  0.00000000000E+00 0. -1.
       -4    1    6    6    0  502  0.28854164412E+02  0.44705624985E+02  0.24867482837E+02  0.58732847809E+02  0.00000000000E+00 0.  1.
</event>
<event>
12   0  0.1523332E-01  0.1985784E+03  0.7957747E-01  0.1157149E+00
       21   -1    0    0  501  503  0.00000000000E+00  0.00000000000E+00  0.71965885726E+02  0.71965885726E+02  0.00000000000E+00 0. -1.
       21   -1    0    0  503  504  0.00000000000E+00  0.00000000000E+00 -0.54431083252E+03  0.54431083252E+03  0.00000000000E+00 0. -1.
        6    2    1    2  501    0  0.18681395096E+02 -0.86126789434E+02 -0.26667125391E+03  0.33038326696E+03  0.17399059469E+03 0.  0.
       24    2    3    3    0    0  0.27938600599E+02 -0.48117064400E+01 -0.58439497868E+02  0.10659677764E+03  0.84522069129E+02 0.  0.
       -6    2    1    2    0  504 -0.18681395096E+02  0.86126789434E+02 -0.20567369288E+03  0.28589345129E+03  0.17795105834E+03 0.  0.
      -24    2    5    5    0    0  0.42643404756E+02  0.17973381053E+02 -0.72100378006E+02  0.12381464762E+03  0.89387359628E+02 0.  0.
        5    1    3    3  501    0 -0.92572055030E+01 -0.81315082994E+02 -0.20823175604E+03  0.22378648932E+03  0.47000000000E+01 0. -1.
      -11    1    4    4    0    0 -0.22431644449E+02  0.18722536529E+02 -0.53122912511E+01  0.29697348115E+02  0.00000000000E+00 0.  1.
       12    1    4    4    0    0  0.50370245048E+02 -0.23534242969E+02 -0.53127206616E+02  0.76899429524E+02  0.00000000000E+00 0. -1.
       -5    1    5    5    0  504 -0.61324799852E+02  0.68153408381E+02 -0.13357331488E+03  0.16207880367E+03  0.47000000000E+01 0.  1.
        3    1    6    6  502    0 -0.57759390447E+01  0.37626259795E+02 -0.44410931475E+01  0.38325190233E+02  0.00000000000E+00 0. -1.
       -4    1    6    6    0  502  0.48419343801E+02 -0.19652878742E+02 -0.67659284858E+02  0.85489457388E+02  0.00000000000E+00 0.  1.
</event>
<event>
12   0  0.1523332E-01  0.2186723E+03  0.7957747E-01  0.1141612E+00
       21   -1    0    0  504  503  0.00000000000E+00  0.00000000000E+00  0.68198537830E+03  0.68198537830E+03  0.00000000000E+00 0.  1.
       21   -1    0    0  501  504  0.00000000000E+00  0.00000000000E+00 -0.72558329624E+02  0.72558329624E+02  0.00000000000E+00 0. -1.
        6    2    1    2  501    0 -0.12762486707E+03  0.25432507871E+01  0.22364064746E+03  0.31278219489E+03  0.17754714142E+03 0.  0.
       24    2    3    3    0    0 -0.16296770833E+03 -0.80455698764E+01  0.18420777656E+03  0.25857628324E+03  0.79410227020E+02 0.  0.
       -6    2    1    2    0  503  0.12762486707E+03 -0.25432507871E+01  0.38578640122E+03  0.44176151303E+03  0.17328448347E+03 0.  0.
      -24    2    5    5    0    0  0.95190812364E+02  0.63894144434E+02  0.22831654097E+03  0.26773639336E+03  0.80066103933E+02 0.  0.
        5    1    3    3  501    0  0.35342841258E+02  0.10588820664E+02  0.39432870892E+02  0.54205911652E+02  0.47000000000E+01 0. -1.
        2    1    4    4  502    0 -0.88003512218E+02  0.13305747712E+02  0.14783989187E+03  0.17256388589E+03  0.00000000000E+00 0. -1.
       -1    1    4    4    0  502 -0.74964196112E+02 -0.21351317589E+02  0.36367884697E+02  0.86012397355E+02  0.00000000000E+00 0.  1.
       -5    1    5    5    0  503  0.32434054708E+02 -0.66437395221E+02  0.15746986025E+03  0.17402511967E+03  0.47000000000E+01 0.  1.
       13    1    6    6    0    0  0.10689648453E+03  0.49524561485E+02  0.17224637151E+03  0.20868242162E+03  0.00000000000E+00 0. -1.
      -14    1    6    6    0    0 -0.11705672168E+02  0.14369582949E+02  0.56070169463E+02  0.59053971743E+02  0.00000000000E+00 0.  1.
</event>
<event>
12   0  0.1523332E-01  0.1917278E+03  0.7957747E-01  0.1162913E+00
       21   -1    0    0  501  503  0.00000000000E+00  0.00000000000E+00  0.28350949973E+03  0.28350949973E+03  0.00000000000E+00 0. -1.
       21   -1    0    0  503  504  0.00000000000E+00  0.00000000000E+00 -0.13744248102E+03  0.13744248102E+03  0.00000000000E+00 0. -1.
        6    2    1    2  501    0  0.56357175985E+02  0.59821889301E+02  0.15361335385E+02  0.18890989785E+03  0.16939949574E+03 0.  0.
       24    2    3    3    0    0 -0.19216512119E+02 -0.10490116713E+02 -0.87109336342E+01  0.82812185060E+02  0.79389298668E+02 0.  0.
       -6    2    1    2    0  504 -0.56357175985E+02 -0.59821889301E+02  0.13070568332E+03  0.23204208289E+03  0.17321882939E+03 0.  0.
      -24    2    5    5    0    0 -0.27106764141E+02  0.36268822536E+02  0.65416715128E+02  0.11215150419E+03  0.79046879276E+02 0.  0.
        5    1    3    3  501    0  0.75573688105E+02  0.70312006014E+02  0.24072269019E+02  0.10609771279E+03  0.47000000000E+01 0. -1.
      -13    1    4    4    0    0 -0.35394211021E+02  0.17473637581E+02  0.15535176801E+02  0.42419569804E+02  0.00000000000E+00 0.  1.
       14    1    4    4    0    0  0.16177698902E+02 -0.27963754294E+02 -0.24246110435E+02  0.40392615256E+02  0.00000000000E+00 0. -1.
       -5    1    5    5    0  504 -0.29250411844E+02 -0.96090711837E+02  0.65288968194E+02  0.11989057870E+03  0.47000000000E+01 0.  1.
        1    1    6    6  502    0 -0.34965861553E+02 -0.15170054870E+02  0.35727960347E+02  0.52242025128E+02  0.00000000000E+00 0. -1.
       -2    1    6    6    0  502  0.78590974125E+01  0.51438877405E+02  0.29688754781E+02  0.59909479061E+02  0.00000000000E+00 0.  1.
</event>
<event>
12   0  0.1523332E-01  0.2121273E+03  0.7957747E-01  0.1146465E+00
       21   -1    0    0  504  503  0.00000000000E+00  0.00000000000E+00  0.16659983739E+03  0.16659983739E+03  0.00000000000E+00 0.  1.
       21   -1    0    0  501  504  0.00000000000E+00  0.00000000000E+00 -0.34663068602E+03  0.34663068602E+03  0.00000000000E+00 0.  1.
        6    2    1    2  501    0  0.11917864048E+03 -0.35031305658E+02 -0.21079471095E+03  0.29905249033E+03  0.17195127531E+03 0.  0.
       24    2    3    3    0    0  0.11749042372E+03 -0.83775065611E+02 -0.14247085817E+03  0.21497488885E+03  0.71372236382E+02 0.  0.
       -6    2    1    2    0  503 -0.11917864048E+03  0.35031305658E+02  0.30763862325E+02  0.21417803308E+03  0.17174129936E+03 0.  0.
      -24    2    5    5    0    0 -0.28670503443E+02 -0.33695657326E+02  0.41168491600E+02  0.99961289030E+02  0.79624239486E+02 0.  0.
        5    1    3    3  501    0  0.16882167677E+01  0.48743759953E+02 -0.68323852787E+02  0.84077601475E+02  0.47000000000E+01 0. -1.
        4    1    4    4  502    0  0.84609643214E+02 -0.38619991051E+02 -0.46623492613E+02  0.10403867308E+03  0.00000000000E+00 0. -1.
       -3    1    4    4    0  502  0.32880780503E+02 -0.45155074561E+02 -0.95847365554E+02  0.11093621577E+03  0.00000000000E+00 0.  1.
       -5    1    5    5    0  503 -0.90508137042E+02  0.68726962984E+02 -0.10404629275E+02  0.11421674405E+03  0.47000000000E+01 0.  1.
       11    1    6    6    0    0 -0.36133812147E+02 -0.32058401425E+02 -0.90663577370E+01  0.49148675718E+02  0.00000000000E+00 0. -1.
      -12    1    6    6    0    0  0.74633087046E+01 -0.16372559007E+01  0.50234849337E+02  0.50812613312E+02  0.00000000000E+00 0.  1.
</event>
<event>
12   0  0.1523332E-01  0.1931714E+03  0.7957747E-01  0.1161677E+00
       21   -1    0    0  504  503  0.00000000000E+00  0.00000000000E+00  0.39397262613E+03  0.39397262613E+03  0.00000000000E+00 0. -1.
       21   -1    0    0  501  504  0.00000000000E+00  0.00000000000E+00 -0.16514860712E+03  0.16514860712E+03  0.00000000000E+00 0.  1.
        6    2    1    2  501    0 -0.25502872813E+02 -0.81775153134E+02 -0.68483560750E+02  0.20495163950E+03  0.17314041773E+03 0.  0.
       24    2    3    3    0    0 -0.32473192961E+02 -0.47447074000E+02 -0.11122174435E+03  0.14949314406E+03  0.81683478214E+02 0.  0.
       -6    2    1    2    0  503  0.25502872813E+02  0.81775153134E+02  0.29730757976E+03  0.35416959375E+03  0.17235640969E+03 0.  0.
      -24    2    5    5    0    0  0.62827460917E+02  0.45467889659E+02  0.96924023421E+02  0.14707782204E+03  0.78885997394E+02 0.  0.
        5    1    3    3  501    0  0.69703201479E+01 -0.34328079134E+02  0.42738183596E+02  0.55458495446E+02  0.47000000000E+01 0. -1.
        4    1    4    4  502    0 -0.59042739892E+02 -0.26809611905E+02 -0.60881862115E+02  0.88946059829E+02  0.00000000000E+00 0. -1.
       -3    1    4    4    0  502  0.26569546931E+02 -0.20637462095E+02 -0.50339882230E+02  0.60547084230E+02  0.00000000000E+00 0.  1.
       -5    1    5    5    0  503 -0.37324588104E+02  0.36307263475E+02  0.20038355634E+03  0.20709177171E+03  0.47000000000E+01 0.  1.
       11    1    6    6    0    0  0.53159536110E+02 -0.10154386999E+02  0.45299498403E+02  0.70576854635E+02  0.00000000000E+00 0. -1.
      -12    1    6    6    0    0  0.96679248077E+01  0.55622276657E+02  0.51624525018E+02  0.76500967406E+02  0.00000000000E+00 0.  1.
</event>
<event>
12   0  0.1523332E-01  0.1908944E+03  0.7957747E-01  0.1163632E+00
       -2   -1    0    0    0  501  0.00000000000E+00  0.00000000000E+00  0.17682551728E+02  0.17682551728E+02  0.00000000000E+00 0. -1.
        2   -1    0    0  502    0  0.00000000000E+00  0.00000000000E+00 -0.20726478741E+04  0.20726478741E+04  0.00000000000E+00 0.  1.
        6    2    1    2  502    0  0.14345185111E+02  0.78146585038E+02 -0.11042969798E+04  0.11206085730E+04  0.17314468279E+03 0.  0.
       24    2    3    3    0    0  0.41286647046E+02  0.37031375945E+01 -0.83747673666E+03  0.84225124618E+03  0.79382471621E+02 0.  0.
       -6    2    1    2    0  501 -0.14345185111E+02 -0.78146585038E+02 -0.95066834252E+03  0.96972185278E+03  0.17400431377E+03 0.  0.
      -24    2    5    5    0    0  0.51096406725E+02 -0.67078994432E+02 -0.45457460592E+03  0.46918596097E+03  0.79918454361E+02 0.  0.
        5    1    3    3  502    0 -0.26941461934E+02  0.74443447443E+02 -0.26682024316E+03  0.27835732683E+03  0.47000000000E+01 0. -1.
        2    1    4    4  503    0 -0.15495081010E+02  0.22483739165E+02 -0.36190320355E+03  0.36293187350E+03  0.00000000000E+00 0. -1.
       -1    1    4    4    0  503  0.56781728055E+02 -0.18780601570E+02 -0.47557353311E+03  0.47931937268E+03  0.00000000000E+00 0.  1.
       -5    1    5    5    0  501 -0.65441591836E+02 -0.11067590605E+02 -0.49609373660E+03  0.50053589182E+03  0.47000000000E+01 0.  1.
       13    1    6    6    0    0 -0.18720214290E+02 -0.24856884090E+02 -0.80238363235E+02  0.86061059977E+02  0.00000000000E+00 0. -1.
      -14    1    6    6    0    0  0.69816621015E+02 -0.42222110342E+02 -0.37433624268E+03  0.38312490099E+03  0.00000000000E+00 0.  1.
</event>
<event>
12   0  0.1523332E-01  0.1744730E+03  0.7957747E-01  0.1178686E+00
       21   -1    0    0  501  503  0.00000000000E+00  0.00000000000E+00  0.13792639500E+03  0.13792639500E+03  0.00000000000E+00 0.  1.
       21   -1    0    0  503  504  0.00000000000E+00  0.00000000000E+00 -0.34554674497E+03  0.34554674497E+03  0.00000000000E+00 0.  1.
        6    2    1    2  501    0  0.32070707689E+00 -0.15065745038E+02 -0.24931033954E+03  0.30408837023E+03  0.17345608085E+03 0.  0.
       24    2    3    3    0    0  0.36182365799E+02 -0.53705705835E+02 -0.92556896622E+02  0.13864098584E+03  0.80380827364E+02 0.  0.
       -6    2    1    2    0  504 -0.32070707689E+00  0.15065745038E+02  0.41689989562E+02  0.17938476974E+03  0.17382105988E+03 0.  0.
      -24    2    5    5    0    0 -0.40863019576E+02  0.19740508792E+01 -0.30905567547E+02  0.95080105150E+02  0.80071149887E+02 0.  0.
        5    1    3    3  501    0 -0.35861658723E+02  0.38639960797E+02 -0.15675344292E+03  0.16544738439E+03  0.47000000000E+01 0. -1.
        4    1    4    4  502    0  0.31315840294E+02 -0.12093473922E+02  0.35912681400E+01  0.33761385808E+02  0.00000000000E+00 0. -1.
       -3    1    4    4    0  502  0.48665255054E+01 -0.41612231913E+02 -0.96148164762E+02  0.10487960003E+03  0.00000000000E+00 0.  1.
       -5    1    5    5    0  504  0.40542312499E+02  0.13091694159E+02  0.72595557109E+02  0.84304664585E+02  0.47000000000E+01 0.  1.
       11    1    6    6    0    0 -0.60348680806E+02 -0.12841409938E+02 -0.92341034154E+01  0.62386967791E+02  0.00000000000E+00 0. -1.
      -12    1    6    6    0    0  0.19485661231E+02  0.14815460817E+02 -0.21671464132E+02  0.32693137360E+02  0.00000000000E+00 0.  1.
</event>
<event>
12   0  0.1523332E-01  0.2757773E+03  0.7957747E-01  0.1105870E+00
       -2   -1    0    0    0  501  0.00000000000E+00  0.00000000000E+00  0.49087441922E+02  0.49087441922E+02  0.00000000000E+00 0.  1.
        2   -1    0    0  502    0  0.00000000000E+00  0.00000000000E+00 -0.17126681167E+04  0.17126681167E+04  0.00000000000E+00 0. -1.
        6    2    1    2  502    0  0.17321260958E+03 -0.12709417370E+03 -0.55918597692E+03  0.62339793829E+03  0.17257026270E+03 0.  0.
       24    2    3    3    0    0  0.11638070119E+03 -0.16759811045E+02 -0.37542010307E+03  0.40159729855E+03  0.80714171878E+02 0.  0.
       -6    2    1    2    0  501 -0.17321260958E+03  0.12709417370E+03 -0.11043946978E+04  0.11383576203E+04  0.17324804765E+03 0.  0.
      -24    2    5    5    0    0 -0.12005904499E+03  0.11513723194E+03 -0.10290176459E+04  0.10452337252E+04  0.77236443729E+02 0.  0.
        5    1    3    3  502    0  0.56831908392E+02 -0.11033436265E+03 -0.18376587385E+03  0.22180063973E+03  0.47000000000E+01 0. -1.
        2    1    4    4  503    0  0.83241632736E+02  0.15462803522E+02 -0.15734714154E+03  0.17867957540E+03  0.00000000000E+00 0. -1.
       -1    1    4    4    0  503  0.33139068453E+02 -0.32222614568E+02 -0.21807296152E+03  0.22291772315E+03  0.00000000000E+00 0.  1.
       -5    1    5    5    0  501 -0.53153564587E+02  0.11956941758E+02 -0.75377051938E+02  0.93123895125E+02  0.47000000000E+01 0.  1.
       11    1    6    6    0    0 -0.57808337395E+02  0.33776670269E+02 -0.22602843740E+03  0.23573612757E+03  0.00000000000E+00 0. -1.
      -12    1    6    6    0    0 -0.62250707600E+02  0.81360561669E+02 -0.80298920850E+03  0.80949759762E+03  0.00000000000E+00 0.  1.
</event>
<event>
12   0  0.1523332E-01  0.2013964E+03  0.7957747E-01  0.1154851E+00
       21   -1    0    0  504  503  0.00000000000E+00  0.00000000000E+00  0.51407732225E+03  0.51407732225E+03  0.00000000000E+00 0.  1.
       21   -1    0    0  501  504  0.00000000000E+00  0.00000000000E+00 -0.89491605289E+02  0.89491605289E+02  0.00000000000E+00 0. -1.
        6    2    1    2  501    0  0.63101186996E+02 -0.63528459891E+02  0.90626244003E+02  0.21358247351E+03  0.17142558698E+03 0.  0.
       24    2    3    3    0    0 -0.21133284165E+02 -0.16577052333E+02  0.11882907516E+02  0.88993212958E+02  0.84006988387E+02 0.  0.
       -6    2    1    2    0  503 -0.63101186996E+02  0.63528459891E+02  0.33395947296E+03  0.38998645404E+03  0.18039645155E+03 0.  0.
      -24    2    5    5    0    0 -0.98409875784E+02  0.56608565384E+02  0.15776710131E+03  0.21009640352E+03  0.79755922612E+02 0.  0.
        5    1    3    3  501    0  0.84234471162E+02 -0.46951407558E+02  0.78743336487E+02  0.12458926055E+03  0.47000000000E+01 0. -1.
        4    1    4    4  502    0  0.28163244182E+02 -0.23359392989E+00 -0.13447747274E+02  0.31210011145E+02  0.00000000000E+00 0. -1.
       -3    1    4    4    0  502 -0.49296528347E+02 -0.16343458404E+02  0.25330654790E+02  0.57783201813E+02  0.00000000000E+00 0.  1.
       -5    1    5    5    0  503  0.35308688788E+02  0.69198945069E+01  0.17619237165E+03  0.17989005051E+03  0.47000000000E+01 0.  1.
       11    1    6    6    0    0 -0.47373862353E+02  0.54772550825E+02  0.42365053162E+02  0.83899421259E+02  0.00000000000E+00 0. -1.
      -12    1    6    6    0    0 -0.51036013430E+02  0.18360145596E+01  0.11540204815E+03  0.12619698227E+03  0.00000000000E+00 0.  1.
</event>
<event>
12   0  0.1523332E-01  0.1810331E+03  0.7957747E-01  0.1172462E+00
       21   -1    0    0  501  503  0.00000000000E+00  0.00000000000E+00  0.99345382012E+03  0.99345382012E+03  0.00000000000E+00 0. -1.
       21   -1    0    0  503  504  0.00000000000E+00  0.00000000000E+00 -0.37567414059E+02  0.37567414059E+02  0.00000000000E+00 0. -1.
        6    2    1    2  501    0  0.34339283570E+02  0.30431334420E+02  0.67636820134E+03  0.69799957493E+03  0.16620532576E+03 0.  0.
       24    2    3    3    0    0  0.85798797354E+02  0.27927393431E+02  0.48900029187E+03  0.50362062859E+03  0.79819040139E+02 0.  0.
       -6    2    1    2    0  504 -0.34339283570E+02 -0.30431334420E+02  0.27951820472E+03  0.33302165925E+03  0.17512208954E+03 0.  0.
      -24    2    5    5    0    0 -0.48303784339E+02  0.54033736960E+01  0.61707967337E+02  0.11179208822E+03  0.79543357528E+02 0.  0.
        5    1    3    3  501    0 -0.51459513784E+02  0.25039409886E+01  0.18736790947E+03  0.19437894634E+03  0.47000000000E+01 0. -1.
      -11    1    4    4    0    0  0.95025406836E+01 -0.24769280435E+02  0.14127429296E+03  0.14374366554E+03  0.00000000000E+00 0.  1.
       12    1    4    4    0    0  0.76296256670E+02  0.52696673867E+02  0.34772599891E+03  0.35987696305E+03  0.00000000000E+00 0. -1.
       -5    1    5    5    0  504  0.13964500769E+02 -0.35834708116E+02  0.21781023738E+03  0.22122957103E+03  0.47000000000E+01 0.  1.
        3    1    6    6  502    0  0.20148974616E+02  0.33045297889E+01  0.12786509187E+01  0.20458153469E+02  0.00000000000E+00 0. -1.
       -4    1    6    6    0  502 -0.68452758954E+02  0.20988439070E+01  0.60429316418E+02  0.91333934750E+02  0.00000000000E+00 0.  1.
</event>
<event>
12   0  0.1523332E-01  0.2252827E+03  0.7957747E-01  0.1136895E+00
        1   -1    0    0  502    0  0.00000000000E+00  0.00000000000E+00  0.79761618266E+03  0.79761618266E+03  0.00000000000E+00 0. -1.
       -1   -1    0    0    0  501  0.00000000000E+00  0.00000000000E+00 -0.67097971602E+02  0.67097971602E+02  0.00000000000E+00 0.  1.
        6    2    1    2  502    0 -0.73519666657E+02 -0.12294737795E+03  0.46225012501E+03  0.51385870124E+03  0.17278422277E+03 0.  0.
       24    2    3    3    0    0 -0.89421297294E+02 -0.46588508240E+02  0.37481587661E+03  0.39659670129E+03  0.81457624581E+02 0.  0.
       -6    2    1    2    0  501  0.73519666657E+02  0.12294737795E+03  0.26826808604E+03  0.35085545302E+03  0.17495880599E+03 0.  0.
      -24    2    5    5    0    0  0.83509294368E+01 -0.52402816871E+01  0.90930362045E+02  0.12249214873E+03  0.81478814323E+02 0.  0.
        5    1    3    3  502    0  0.15901630637E+02 -0.76358869708E+02  0.87434248398E+02  0.11726199995E+03  0.47000000000E+01 0. -1.
      -13    1    4    4    0    0 -0.27184416070E+02 -0.58422156096E+02  0.15572091355E+03  0.16852638878E+03  0.00000000000E+00 0.  1.
       14    1    4    4    0    0 -0.62236881225E+02  0.11833647857E+02  0.21909496307E+03  0.22807031251E+03  0.00000000000E+00 0. -1.
       -5    1    5    5    0  501  0.65168737221E+02  0.12818765963E+03  0.17733772400E+03  0.22836330429E+03  0.47000000000E+01 0.  1.
        1    1    6    6  503    0  0.16790986889E+02 -0.25182527938E+02  0.95653844294E+02  0.10032823572E+03  0.00000000000E+00 0. -1.
       -2    1    6    6    0  503 -0.84400574521E+01  0.19942246251E+02 -0.47234822485E+01  0.22163913009E+02  0.00000000000E+00 0.  1.
</event>
<event>
12   0  0.1523332E-01  0.3152583E+03  0.7957747E-01  0.1086258E+00
       -1   -1    0    0    0  501  0.00000000000E+00  0.00000000000E+00  0.14311096427E+03  0.14311096427E+03  0.00000000000E+00 0.  1.
        1   -1    0    0  502    0  0.00000000000E+00  0.00000000000E+00 -0.69511677349E+03  0.69511677349E+03  0.00000000000E+00 0. -1.
        6    2    1    2  502    0 -0.22533363946E+03 -0.13771811521E+03 -0.28988461031E+03  0.42944185346E+03  0.17505910397E+03 0.  0.
       24    2    3    3    0    0 -0.76145488602E+02 -0.59454615870E+02 -0.49290224539E+02  0.13569020981E+03  0.81543362820E+02 0.  0.
       -6    2    1    2    0  501  0.22533363946E+03  0.13771811521E+03 -0.26212119891E+03  0.40878588429E+03  0.16928333630E+03 0.  0.
      -24    2    5    5    0    0  0.14393505971E+03  0.90880780170E+02 -0.25128124429E+03  0.31413357658E+03  0.81000139410E+02 0.  0.
        5    1    3    3  502    0 -0.14918815086E+03 -0.78263499335E+02 -0.24059438577E+03  0.29375164365E+03  0.47000000000E+01 0. -1.
      -11    1    4    4    0    0 -0.87570054731E+02 -0.68952868038E+02 -0.45247571755E+02  0.12029278967E+03  0.00000000000E+00 0.  1.
       12    1    4    4    0    0  0.11424566129E+02  0.94982521673E+01 -0.40426527839E+01  0.15397420141E+02  0.00000000000E+00 0. -1.
       -5    1    5    5    0  501  0.81398579754E+02  0.46837335036E+02 -0.10839954622E+02  0.94652307713E+02  0.47000000000E+01 0.  1.
        1    1    6    6  503    0  0.20593164647E+02  0.19733442828E+02 -0.10965043898E+03  0.11329918784E+03  0.00000000000E+00 0. -1.
       -2    1    6    6    0  503  0.12334189506E+03  0.71147337343E+02 -0.14163080531E+03  0.20083438874E+03  0.00000000000E+00 0.  1.
</event>
<event>
12   0  0.1523332E-01  0.1963138E+03  0.7957747E-01  0.1159026E+00
       21   -1    0    0  504  503  0.00000000000E+00  0.00000000000E+00  0.30109229077E+03  0.30109229077E+03  0.00000000000E+00 0.  1.
       21   -1    0    0  501  504  0.00000000000E+00  0.00000000000E+00 -0.13235831842E+03  0.13235831842E+03  0.00000000000E+00 0. -1.
        6    2    1    2  501    0 -0.71338567515E+02 -0.56767104706E+02  0.38144018587E+02  0.19998517004E+03  0.17386030797E+03 0.  0.
       24    2    3    3    0    0  0.14144007452E+02 -0.65831237734E+02 -0.75592242607E+00  0.10551440979E+03  0.81233702650E+02 0.  0.
       -6    2    1    2    0  503  0.71338567515E+02  0.56767104706E+02  0.13058995376E+03  0.23346543915E+03  0.17070641424E+03 0.  0.
      -24    2    5    5    0    0  0.53869678001E+02  0.20576305520E+02  0.37213811699E+01  0.10030140212E+03  0.81982900857E+02 0.  0.
        5    1    3    3  501    0 -0.85482574967E+02  0.90641330283E+01  0.38899941013E+02  0.94470760246E+02  0.47000000000E+01 0. -1.
      -13    1    4    4    0    0 -0.20131209727E+01  0.12475181347E+02  0.19311673335E+02  0.23078638017E+02  0.00000000000E+00 0.  1.
       14    1    4    4    0    0  0.16157128424E+02 -0.78306419081E+02 -0.20067595761E+02  0.82435771774E+02  0.00000000000E+00 0. -1.
       -5    1    5    5    0  503  0.17468889514E+02  0.36190799186E+02  0.12686857259E+03  0.13316403703E+03  0.47000000000E+01 0.  1.
        3    1    6    6  502    0  0.61940475333E+02 -0.14835271032E+02 -0.82986148190E+00  0.63697695572E+02  0.00000000000E+00 0. -1.
       -4    1    6    6    0  502 -0.80707973325E+01  0.35411576552E+02  0.45512426518E+01  0.36603706549E+02  0.00000000000E+00 0.  1.
</event>
<event>
12   0  0.1523332E-01  0.2667658E+03  0.7957747E-01  0.1110850E+00
       21   -1    0    0  501  503  0.00000000000E+00  0.00000000000E+00  0.43885308369E+03  0.43885308369E+03  0.00000000000E+00 0.  1.
       21   -1    0    0  503  504  0.00000000000E+00  0.00000000000E+00 -0.20285247180E+03  0.20285247180E+03  0.00000000000E+00 0. -1.
        6    2    1    2  501    0  0.18217563379E+03  0.90481394040E+02 -0.25737430514E+02  0.26800449008E+03  0.17259532775E+03 0.  0.
       24    2    3    3    0    0  0.13549316439E+03  0.11943260054E+03 -0.55301595974E+02  0.20544607589E+03  0.80791583194E+02 0.  0.
       -6    2    1    2    0  504 -0.18217563379E+03 -0.90481394040E+02  0.26173804240E+03  0.37370106541E+03  0.17254228246E+03 0.  0.
      -24    2    5    5    0    0 -0.15198520592E+03 -0.13062407447E+03  0.22021834215E+03  0.30836445824E+03  0.80189583103E+02 0.  0.
        5    1    3    3  501    0  0.46682469400E+02 -0.28951206496E+02  0.29564165460E+02  0.62558414192E+02  0.47000000000E+01 0. -1.
      -11    1    4    4    0    0  0.73237831329E+02  0.26376927752E+02  0.55082791038E+01  0.78037576808E+02  0.00000000000E+00 0.  1.
       12    1    4    4    0    0  0.62255333060E+02  0.93055672784E+02 -0.60809875078E+02  0.12740849908E+03  0.00000000000E+00 0. -1.
       -5    1    5    5    0  504 -0.30190427865E+02  0.40142680432E+02  0.41519700252E+02  0.65336607166E+02  0.47000000000E+01 0.  1.
        1    1    6    6  502    0 -0.12831412974E+03 -0.10567332040E+03  0.12756346316E+03  0.20953234515E+03  0.00000000000E+00 0. -1.
       -2    1    6    6    0  502 -0.23671076188E+02 -0.24950754076E+02  0.92654878991E+02  0.98832113089E+02  0.00000000000E+00 0.  1.
</event>
<event>
12   0  0.1523332E-01  0.1850786E+03  0.7957747E-01  0.1168767E+00
        1   -1    0    0  502    0  0.00000000000E+00  0.00000000000E+00  0.65880839071E+02  0.65880839071E+02  0.00000000000E+00 0. -1.
       -1   -1    0    0    0  501  0.00000000000E+00  0.00000000000E+00 -0.54384336240E+03  0.54384336240E+03  0.00000000000E+00 0.  1.
        6    2    1    2  502    0 -0.31003070593E+02  0.53195183058E+02 -0.30465009184E+03  0.35722488721E+03  0.17608811343E+03 0.  0.
       24    2    3    3    0    0 -0.23005629111E+02  0.22358637318E+02 -0.31254088179E+03  0.32407060861E+03  0.79440474212E+02 0.  0.
       -6    2    1    2    0  501  0.31003070593E+02 -0.53195183058E+02 -0.17331243149E+03  0.25249931427E+03  0.17299649392E+03 0.  0.
      -24    2    5    5    0    0  0.45937307065E+02 -0.71692103110E+02 -0.51429870498E+02  0.12823099110E+03  0.80920712239E+02 0.  0.
        5    1    3    3  502    0 -0.79974414816E+01  0.30836545740E+02  0.78907899419E+01  0.33154278597E+02  0.47000000000E+01 0. -1.
        2    1    4    4  503    0 -0.52323918067E+02  0.10851790623E+02 -0.21649749580E+03  0.22299488660E+03  0.00000000000E+00 0. -1.
       -1    1    4    4    0  503  0.29318288956E+02  0.11506846695E+02 -0.96043385985E+02  0.10107572201E+03  0.00000000000E+00 0.  1.
       -5    1    5    5    0  501 -0.14934236472E+02  0.18496920053E+02 -0.12188256099E+03  0.12426832317E+03  0.47000000000E+01 0.  1.
       13    1    6    6    0    0 -0.13244711245E+02  0.92372612847E+01 -0.14746436046E+01  0.16214929718E+02  0.00000000000E+00 0. -1.
      -14    1    6    6    0    0  0.59182018310E+02 -0.80929364395E+02 -0.49955226893E+02  0.11201606138E+03  0.00000000000E+00 0.  1.
</event>
<event>
12   0  0.1523332E-01  0.3500882E+03  0.7957747E-01  0.1071377E+00
        2   -1    0    0  502    0  0.00000000000E+00  0.00000000000E+00  0.14337684350E+04  0.14337684350E+04  0.00000000000E+00 0.  1.
       -2   -1    0    0    0  501  0.00000000000E+00  0.00000000000E+00 -0.92030027537E+02  0.92030027537E+02  0.00000000000E+00 0. -1.
        6    2    1    2  502    0  0.30521364398E+03  0.15825781640E+02  0.46496485816E+03  0.58120624226E+03  0.16793615714E+03 0.  0.
       24    2    3    3    0    0  0.64863376546E+02 -0.14694950358E+02  0.16502002842E+03  0.19560443076E+03  0.81279052473E+02 0.  0.
       -6    2    1    2    0  501 -0.30521364398E+03 -0.15825781640E+02  0.87677354933E+03  0.94459222031E+03  0.17354187398E+03 0.  0.
      -24    2    5    5    0    0 -0.14312959745E+03  0.47639267025E+02  0.34467619472E+03  0.38472729434E+03  0.80360627037E+02 0.  0.
        5    1    3    3  502    0  0.24035026744E+03  0.30520731997E+02  0.29994482974E+03  0.38560181150E+03  0.47000000000E+01 0. -1.
        2    1    4    4  503    0  0.27040394732E+02  0.31350920575E+02  0.95202154598E+02  0.10381480342E+03  0.00000000000E+00 0. -1.
       -1    1    4    4    0  503  0.37822981813E+02 -0.46045870933E+02  0.69817873821E+02  0.91789627345E+02  0.00000000000E+00 0.  1.
       -5    1    5    5    0  501 -0.16208404654E+03 -0.63465048664E+02  0.53209735461E+03  0.55986492596E+03  0.47000000000E+01 0.  1.
       11    1    6    6    0    0 -0.14000105253E+03  0.21894767977E+02  0.25922363747E+03  0.29542608178E+03  0.00000000000E+00 0. -1.
      -12    1    6    6    0    0 -0.31285449224E+01  0.25744499048E+02  0.85452557252E+02  0.89301212564E+02  0.00000000000E+00 0.  1.
</event>
<event>
12   0  0.1523332E-01  0.1942462E+03  0.7957747E-01  0.1160764E+00
       21   -1    0    0  501  503  0.00000000000E+00  0.00000000000E+00  0.13992513377E+03  0.13992513377E+03  0.00000000000E+00 0. -1.
       21   -1    0    0  503  504  0.00000000000E+00  0.00000000000E+00 -0.26599147967E+03  0.26599147967E+03  0.00000000000E+00 0.  1.
        6    2    1    2  501    0  0.88221772488E+02  0.62170704633E+00 -0.61420511011E+02  0.20119568795E+03  0.17006986217E+03 0.  0.
       24    2    3    3    0    0  0.86485908621E+02  0.30025089494E+02 -0.96682911965E+02  0.15501020275E+03  0.79367871965E+02 0.  0.
       -6    2    1    2    0  504 -0.88221772488E+02 -0.62170704633E+00 -0.64645834885E+02  0.20472092549E+03  0.17305520999E+03 0.  0.
      -24    2    5    5    0    0 -0.73489444691E+02 -0.62592100054E+02 -0.65893987422E+02  0.14083807195E+03  0.78580375800E+02 0.  0.
        5    1    3    3  501    0  0.17358638669E+01 -0.29403382447E+02  0.35262400954E+02  0.46185485206E+02  0.47000000000E+01 0. -1.
      -11    1    4    4    0    0  0.43319987889E+02 -0.25332057959E+02 -0.49082595260E+02  0.70195695513E+02  0.00000000000E+00 0.  1.
       12    1    4    4    0    0  0.43165920732E+02  0.55357147452E+02 -0.47600316705E+02  0.84814507233E+02  0.00000000000E+00 0. -1.
       -5    1    5    5    0  504 -0.14732327797E+02  0.61970393007E+02  0.12481525368E+01  0.63882853541E+02  0.47000000000E+01 0.  1.
        3    1    6    6  502    0 -0.18849193146E+02 -0.11385939743E+02  0.17958409260E+02  0.28415421328E+02  0.00000000000E+00 0. -1.
       -4    1    6    6    0  502 -0.54640251545E+02 -0.51206160310E+02 -0.83852396682E+02  0.11242265062E+03  0.00000000000E+00 0.  1.
</event>
<event>
12   0  0.1523332E-01  0.2006267E+03  0.7957747E-01  0.1155474E+00
        1   -1    0    0  502    0  0.00000000000E+00  0.00000000000E+00  0.85718496958E+02  0.85718496958E+02  0.00000000000E+00 0. -1.
       -1   -1    0    0    0  501  0.00000000000E+00  0.00000000000E+00 -0.50687498624E+03  0.50687498624E+03  0.00000000000E+00 0.  1.
        6    2    1    2  502    0 -0.15261910687E+01 -0.97365756212E+02 -0.12940875367E+03  0.23805290121E+03  0.17447102484E+03 0.  0.
       24    2    3    3    0    0 -0.60597676228E+02 -0.19101623331E+02 -0.66864950492E+02  0.12165473898E+03  0.79322150341E+02 0.  0.
       -6    2    1    2    0  501  0.15261910687E+01  0.97365756212E+02 -0.29174773561E+03  0.35454058198E+03  0.17635153330E+03 0.  0.
      -24    2    5    5    0    0 -0.68149763470E+02  0.46339542396E+02 -0.14468007919E+03  0.18392581503E+03  0.78132174359E+02 0.  0.
        5    1    3    3  502    0  0.59071485159E+02 -0.78264132881E+02 -0.62543803180E+02  0.11639816223E+03  0.47000000000E+01 0. -1.
      -13    1    4    4    0    0 -0.13820032230E+01  0.24701114979E+02 -0.31200744065E+02  0.39818857898E+02  0.00000000000E+00 0.  1.
       14    1    4    4    0    0 -0.59215673005E+02 -0.43802738310E+02 -0.35664206428E+02  0.81835881085E+02  0.00000000000E+00 0. -1.
       -5    1    5    5    0  501  0.69675954539E+02  0.51026213816E+02 -0.14706765642E+03  0.17061476695E+03  0.47000000000E+01 0.  1.
        3    1    6    6  503    0 -0.42207669397E+02 -0.12875045023E+02 -0.85802401113E+02  0.96484745826E+02  0.00000000000E+00 0. -1.
       -4    1    6    6    0  503 -0.25942094073E+02  0.59214587419E+02 -0.58877678075E+02  0.87441069204E+02  0.00000000000E+00 0.  1.
</event>
<event>
12   0  0.1523332E-01  0.1876818E+03  0.7957747E-01  0.1166443E+00
       -2   -1    0    0    0  501  0.00000000000E+00  0.00000000000E+00  0.79826814570E+02  0.79826814570E+02  0.00000000000E+00 0.  1.
        2   -1    0    0  502    0  0.00000000000E+00  0.00000000000E+00 -0.74269881759E+03  0.74269881759E+03  0.00000000000E+00 0. -1.
        6    2    1    2  502    0  0.65039272420E+02 -0.36372426025E+02 -0.70124525718E+02  0.20097318792E+03  0.17297315637E+03 0.  0.
       24    2    3    3    0    0 -0.30346226720E+02 -0.59459930223E+01 -0.48877813932E+02  0.98515030446E+02  0.79749120495E+02 0.  0.
       -6    2    1    2    0  501 -0.65039272420E+02  0.36372426025E+02 -0.59274747730E+03  0.62155244424E+03  0.17153661055E+03 0.  0.
      -24    2    5    5    0    0 -0.81930432282E+02 -0.24069871023E+02 -0.30322534296E+03  0.32526923711E+03  0.81009342487E+02 0.  0.
        5    1    3    3  502    0  0.95385499140E+02 -0.30426433003E+02 -0.21246711786E+02  0.10245815748E+03  0.47000000000E+01 0. -1.
      -13    1    4    4    0    0  0.39250367148E+01 -0.32119615593E+02 -0.44710202620E+02  0.55191284071E+02  0.00000000000E+00 0.  1.
       14    1    4    4    0    0 -0.34271263435E+02  0.26173622571E+02 -0.41676113124E+01  0.43323746375E+02  0.00000000000E+00 0. -1.
       -5    1    5    5    0  501  0.16891159862E+02  0.60442297048E+02 -0.28952213434E+03  0.29628320713E+03  0.47000000000E+01 0.  1.
        3    1    6    6  503    0 -0.52371297856E+02 -0.19940822188E+02 -0.28465221612E+03  0.29011596538E+03  0.00000000000E+00 0. -1.
       -4    1    6    6    0  503 -0.29559134426E+02 -0.41290488351E+01 -0.18573126842E+02  0.35153271726E+02  0.00000000000E+00 0.  1.
</event>
<event>
12   0  0.1523332E-01  0.2133090E+03  0.7957747E-01  0.1145574E+00
       21   -1    0    0  504  503  0.00000000000E+00  0.00000000000E+00  0.10859282859E+03  0.10859282859E+03  0.00000000000E+00 0.  1.
       21   -1    0    0  501  504  0.00000000000E+00  0.00000000000E+00 -0.57324718335E+03  0.57324718335E+03  0.00000000000E+00 0.  1.
        6    2    1    2  501    0 -0.12018761554E+03  0.32921366700E+02 -0.41002785469E+03  0.46219431921E+03  0.17312385097E+03 0.  0.
       24    2    3    3    0    0 -0.97891854357E+01 -0.55576981621E+01 -0.88737839823E+02  0.12026184714E+03  0.80385269182E+02 0.  0.
       -6    2    1    2    0  503  0.12018761554E+03 -0.32921366700E+02 -0.54626500073E+02  0.21964569273E+03  0.17242765588E+03 0.  0.
      -24    2    5    5    0    0  0.21572661889E+02 -0.59516103103E+02 -0.57866550327E+02  0.11734820003E+03  0.80090674452E+02 0.  0.
        5    1    3    3  501    0 -0.11039843010E+03  0.38479064862E+02 -0.32129001486E+03  0.34193247207E+03  0.47000000000E+01 0. -1.
      -11    1    4    4    0    0 -0.44431555655E+02  0.12831262607E+01 -0.60358872780E+02  0.74960009833E+02  0.00000000000E+00 0.  1.
       12    1    4    4    0    0  0.34642370220E+02 -0.68408244228E+01 -0.28378967043E+02  0.45301837310E+02  0.00000000000E+00 0. -1.
       -5    1    5    5    0  503  0.98614953650E+02  0.26594736402E+02  0.32400502541E+01  0.10229749270E+03  0.47000000000E+01 0.  1.
        1    1    6    6  502    0 -0.27874596280E+02 -0.20252539582E+02 -0.46392453880E+01  0.34766090880E+02  0.00000000000E+00 0. -1.
       -2    1    6    6    0  502  0.49447258169E+02 -0.39263563520E+02 -0.53227304939E+02  0.82582109150E+02  0.00000000000E+00 0.  1.
</event>
<event>
12   0  0.1523332E-01  0.1943559E+03  0.7957747E-01  0.1160671E+00
       21   -1    0    0  504  503  0.00000000000E+00  0.00000000000E+00  0.37835680695E+03  0.37835680695E+03  0.00000000000E+00 0. -1.
       21   -1    0    0  501  504  0.00000000000E+00  0.00000000000E+00 -0.12412629938E+03  0.12412629938E+03  0.00000000000E+00 0. -1.
        6    2    1    2  501    0  0.85702531198E+02  0.21920398480E+02  0.15498522981E+02  0.19464030673E+03  0.17268241678E+03 0.  0.
       24    2    3    3    0    0 -0.89630516618E+01 -0.99433901295E+01 -0.46095121575E+02  0.77197807384E+02  0.60461011649E+02 0.  0.
       -6    2    1    2    0  503 -0.85702531198E+02 -0.21920398480E+02  0.23873198459E+03  0.30784279960E+03  0.17305721908E+03 0.  0.
      -24    2    5    5    0    0 -0.51821817538E+02 -0.76826539169E+02  0.19204170004E+03  0.22806398214E+03  0.80903321948E+02 0.  0.
        5    1    3    3  501    0  0.94665582860E+02  0.31863788609E+02  0.61593644556E+02  0.11744249935E+03  0.47000000000E+01 0. -1.
        2    1    4    4  502    0 -0.13756844343E+02  0.18742462623E+02 -0.41756076803E+02  0.47792265289E+02  0.00000000000E+00 0. -1.
       -1    1    4    4    0  502  0.47937926810E+01 -0.28685852753E+02 -0.43390447724E+01  0.29405542096E+02  0.00000000000E+00 0.  1.
       -5    1    5    5    0  503 -0.33880713660E+02  0.54906140690E+02  0.46690284544E+02  0.79778817454E+02  0.47000000000E+01 0.  1.
       11    1    6    6    0    0 -0.37382930086E+02 -0.52557747704E+02  0.45758437701E+02  0.79079927455E+02  0.00000000000E+00 0. -1.
      -12    1    6    6    0    0 -0.14438887453E+02 -0.24268791466E+02  0.14628326234E+03  0.14898405469E+03  0.00000000000E+00 0.  1.
</event>
<event>
12   0  0.1523332E-01  0.2250057E+03  0.7957747E-01  0.1137089E+00
       21   -1    0    0  504  503  0.00000000000E+00  0.00000000000E+00  0.11699376704E+03  0.11699376704E+03  0.00000000000E+00 0.  1.
       21   -1    0    0  501  504  0.00000000000E+00  0.00000000000E+00 -0.46162383303E+03  0.46162383303E+03  0.00000000000E+00 0.  1.
        6    2    1    2  501    0 -0.10927063799E+03 -0.86651316765E+02 -0.94164196449E+02  0.24391484135E+03  0.17657585031E+03 0.  0.
       24    2    3    3    0    0 -0.88156406195E+02 -0.57559225053E+02 -0.13592066268E+03  0.18861698374E+03  0.77571410117E+02 0.  0.
       -6    2    1    2    0  503  0.10927063799E+03  0.86651316765E+02 -0.25046586954E+03  0.33470275872E+03  0.17275491850E+03 0.  0.
      -24    2    5    5    0    0  0.23637475757E+02  0.22922440515E+01 -0.17046550848E+03  0.19023255628E+03  0.81030557481E+02 0.  0.
        5    1    3    3  501    0 -0.21114231795E+02 -0.29092091711E+02  0.41756466232E+02  0.55297857613E+02  0.47000000000E+01 0. -1.
        2    1    4    4  502    0 -0.13707600896E+02  0.19304194924E+02 -0.27394798068E+02  0.36208082318E+02  0.00000000000E+00 0. -1.
       -1    1    4    4    0  502 -0.74448805299E+02 -0.76863419977E+02 -0.10852586461E+03  0.15240890142E+03  0.00000000000E+00 0.  1.
       -5    1    5    5    0  503  0.85633162233E+02  0.84359072713E+02 -0.80000361064E+02  0.14447020244E+03  0.47000000000E+01 0.  1.
       11    1    6    6    0    0 -0.18870601657E+02  0.26518704672E+02 -0.93786619988E+02  0.99273719549E+02  0.00000000000E+00 0. -1.
      -12    1    6    6    0    0  0.42508077414E+02 -0.24226460620E+02 -0.76678888491E+02  0.90958836733E+02  0.00000000000E+00 0.  1.
</event>
<event>
12   0  0.1523332E-01  0.1917398E+03  0.7957747E-01  0.1162903E+00
       21   -1    0    0  504  503  0.00000000000E+00  0.00000000000E+00  0.41810554081E+03  0.41810554081E+03  0.00000000000E+00 0. -1.
       21   -1    0    0  501  504  0.00000000000E+00  0.00000000000E+00 -0.11123429570E+03  0.11123429570E+03  0.00000000000E+00 0. -1.
        6    2    1    2  501    0  0.40572156268E+02 -0.33738646827E+02  0.28461538943E+03  0.33631265758E+03  0.17121882956E+03 0.  0.
       24    2    3    3    0    0 -0.38143057743E+02  0.11670719855E+02  0.14752459399E+03  0.17177065172E+03  0.78425457627E+02 0.  0.
       -6    2    1    2    0  503 -0.40572156268E+02  0.33738646827E+02  0.22255855676E+02  0.19302717893E+03  0.18433603158E+03 0.  0.
      -24    2    5    5    0    0 -0.74443853101E+02  0.24531703326E+01 -0.39766782795E+02  0.11559998365E+03  0.78956025079E+02 0.  0.
        5    1    3    3  501    0  0.78715214011E+02 -0.45409366682E+02  0.13709079544E+03  0.16454200586E+03  0.47000000000E+01 0. -1.
        4    1    4    4  502    0 -0.59228070740E+02  0.12043247111E+02  0.13321769748E+03  0.14628724854E+03  0.00000000000E+00 0. -1.
       -3    1    4    4    0  502  0.21085012997E+02 -0.37252725533E+00  0.14306896509E+02  0.25483403174E+02  0.00000000000E+00 0.  1.
       -5    1    5    5    0  503  0.33871696833E+02  0.31285476494E+02  0.62022638471E+02  0.77427195278E+02  0.47000000000E+01 0.  1.
       13    1    6    6    0    0 -0.28568389156E+02  0.39243010043E+02 -0.26553409924E+02  0.55328566535E+02  0.00000000000E+00 0. -1.
      -14    1    6    6    0    0 -0.45875463945E+02 -0.36789839711E+02 -0.13213372871E+02  0.60271417113E+02  0.00000000000E+00 0.  1.
</event>
<event>
12   0  0.1523332E-01  0.1764586E+03  0.7957747E-01  0.1176771E+00
       21   -1    0    0  504  503  0.00000000000E+00  0.00000000000E+00  0.68413050689E+02  0.68413050689E+02  0.00000000000E+00 0. -1.
       21   -1    0    0  501  504  0.00000000000E+00  0.00000000000E+00 -0.57265681646E+03  0.57265681646E+03  0.00000000000E+00 0. -1.
        6    2    1    2  501    0 -0.66904883647E+01 -0.33807199411E+02 -0.39812897542E+03  0.43548172617E+03  0.17306057725E+03 0.  0.
       24    2    3    3    0    0  0.25776568439E+02 -0.91687008515E+01 -0.38293341876E+03  0.39173060812E+03  0.77886902499E+02 0.  0.
       -6    2    1    2    0  503  0.66904883647E+01  0.33807199411E+02 -0.10611479036E+03  0.20558814098E+03  0.17268018303E+03 0.  0.
      -24    2    5    5    0    0 -0.30472724901E+02 -0.36291925343E+01 -0.12283617798E+03  0.15005182254E+03  0.80529900190E+02 0.  0.
        5    1    3    3  501    0 -0.32467056803E+02 -0.24638498559E+02 -0.15195556659E+02  0.43751118053E+02  0.47000000000E+01 0. -1.
      -11    1    4    4    0    0 -0.21623156475E+02 -0.69101799612E+01 -0.44191164975E+02  0.49680685833E+02  0.00000000000E+00 0.  1.
       12    1    4    4    0    0  0.47399724913E+02 -0.22585208903E+01 -0.33874225378E+03  0.34204992229E+03  0.00000000000E+00 0. -1.
       -5    1    5    5    0  503  0.37163213266E+02  0.37436391945E+02  0.16721387621E+02  0.55536318442E+02  0.47000000000E+01 0.  1.
        1    1    6    6  502    0 -0.45901554157E+02 -0.30314808892E+02 -0.72141305337E+02  0.90721046334E+02  0.00000000000E+00 0. -1.
       -2    1    6    6    0  502  0.15428829256E+02  0.26685616358E+02 -0.50694872642E+02  0.59330776202E+02  0.00000000000E+00 0.  1.
</event>
<event>
12   0  0.1523332E-01  0.1863956E+03  0.7957747E-01  0.1167586E+00
       21   -1    0    0  501  503  0.00000000000E+00  0.00000000000E+00  0.11032420775E+03  0.11032420775E+03  0.00000000000E+00 0. -1.
       21   -1    0    0  503  504  0.00000000000E+00  0.00000000000E+00 -0.35123910184E+03  0.35123910184E+03  0.00000000000E+00 0. -1.
        6    2    1    2  501    0 -0.33694180884E+02 -0.62716021165E+02 -0.20044106877E+03  0.27082405585E+03  0.16763188850E+03 0.  0.
       24    2    3    3    0    0 -0.84692288811E+02 -0.14856806866E+02 -0.14086795166E+03  0.17883298189E+03  0.68876317511E+02 0.  0.
       -6    2    1    2    0  504  0.33694180884E+02  0.62716021165E+02 -0.40473825321E+02  0.19073925374E+03  0.17226356331E+03 0.  0.
      -24    2    5    5    0    0  0.79127725405E+00  0.27126317745E+02  0.47564042262E+02  0.90131181569E+02  0.71587907783E+02 0.  0.
        5    1    3    3  501    0  0.50998107927E+02 -0.47859214299E+02 -0.59573117108E+02  0.91991073955E+02  0.47000000000E+01 0. -1.
      -13    1    4    4    0    0 -0.29156115078E+02 -0.14491929910E+02 -0.61749858824E+01  0.33139485958E+02  0.00000000000E+00 0.  1.
       14    1    4    4    0    0 -0.55536173733E+02 -0.36487695643E+00 -0.13469296578E+03  0.14569349593E+03  0.00000000000E+00 0. -1.
       -5    1    5    5    0  504  0.32902903630E+02  0.35589703420E+02 -0.88037867583E+02  0.10060807217E+03  0.47000000000E+01 0.  1.
        3    1    6    6  502    0 -0.13183485903E+02  0.42382520040E+02  0.74644800066E+01  0.45008896534E+02  0.00000000000E+00 0. -1.
       -4    1    6    6    0  502  0.13974763157E+02 -0.15256202294E+02  0.40099562255E+02  0.45122285035E+02  0.00000000000E+00 0.  1.
</event>
<event>
12   0  0.1523332E-01  0.3140269E+03  0.7957747E-01  0.1086822E+00
       -2   -1    0    0    0  501  0.00000000000E+00  0.00000000000E+00  0.49362853671E+03  0.49362853671E+03  0.00000000000E+00 0. -1.
        2   -1    0    0  502    0  0.00000000000E+00  0.00000000000E+00 -0.21293706770E+03  0.21293706770E+03  0.00000000000E+00 0.  1.
        6    2    1    2  502    0 -0.12743131545E+03  0.22559609338E+03  0.53503612094E+02  0.32082953394E+03  0.18148447822E+03 0.  0.
       24    2    3    3    0    0 -0.10721458157E+03  0.97242455453E+02 -0.27202183814E+02  0.16779722300E+03  0.80404524742E+02 0.  0.
       -6    2    1    2    0  501  0.12743131545E+03 -0.22559609338E+03  0.22718785692E+03  0.38573607047E+03  0.17333682883E+03 0.  0.
      -24    2    5    5    0    0  0.13342098612E+03 -0.11058244444E+03  0.10700385125E+03  0.21921189560E+03  0.81082639552E+02 0.  0.
        5    1    3    3  502    0 -0.20216733877E+02  0.12835363793E+03  0.80705795908E+02  0.15303231094E+03  0.47000000000E+01 0. -1.
      -11    1    4    4    0    0 -0.83789029799E+02  0.83724701599E+02 -0.53591835094E+02  0.13000966103E+03  0.00000000000E+00 0.  1.
       12    1    4    4    0    0 -0.23425551775E+02  0.13517753854E+02  0.26389651280E+02  0.37787561973E+02  0.00000000000E+00 0. -1.
       -5    1    5    5    0  501 -0.59896706701E+01 -0.11501364894E+03  0.12018400567E+03  0.16652417487E+03  0.47000000000E+01 0.  1.
        3    1    6    6  503    0  0.79635321049E+02 -0.52904660048E+02  0.12966971723E+02  0.96482276969E+02  0.00000000000E+00 0. -1.
       -4    1    6    6    0  503  0.53785665072E+02 -0.57677784391E+02  0.94036879525E+02  0.12272961864E+03  0.00000000000E+00 0.  1.
</event>
<event>
12   0  0.1523332E-01  0.2045016E+03  0.7957747E-01  0.1152366E+00
       21   -1    0    0  504  503  0.00000000000E+00  0.00000000000E+00  0.60430009928E+03  0.60430009928E+03  0.00000000000E+00 0. -1.
       21   -1    0    0  501  504  0.00000000000E+00  0.00000000000E+00 -0.24355931935E+03  0.24355931935E+03  0.00000000000E+00 0. -1.
        6    2    1    2  501    0 -0.74953285496E+02 -0.63718233248E+02 -0.18140009811E+03  0.26843069252E+03  0.17167129299E+03 0.  0.
       24    2    3    3    0    0 -0.50327472467E+02 -0.99606859386E+02 -0.82042997076E+02  0.15985653501E+03  0.79803994222E+02 0.  0.
       -6    2    1    2    0  503  0.74953285496E+02  0.63718233248E+02  0.54214087805E+03  0.57942872611E+03  0.17928443527E+03 0.  0.
      -24    2    5    5    0    0  0.11033441786E+03  0.36108511294E+02  0.49270290081E+03  0.51249349721E+03  0.80099487303E+02 0.  0.
        5    1    3    3  501    0 -0.24625813029E+02  0.35888626138E+02 -0.99357101039E+02  0.10857415752E+03  0.47000000000E+01 0. -1.
      -11    1    4    4    0    0 -0.35292306660E+02 -0.27075821743E+01 -0.63024840982E+01  0.35952735869E+02  0.00000000000E+00 0.  1.
       12    1    4    4    0    0 -0.15035165806E+02 -0.96899277211E+02 -0.75740512978E+02  0.12390379914E+03  0.00000000000E+00 0. -1.
       -5    1    5    5    0  503 -0.35381132363E+02  0.27609721954E+02  0.49437977243E+02  0.66935228897E+02  0.47000000000E+01 0.  1.
        1    1    6    6  502    0  0.96962295205E+02  0.52820593523E+02  0.32095073396E+03  0.33941283921E+03  0.00000000000E+00 0. -1.
       -2    1    6    6    0  502  0.13372122654E+02 -0.16712082229E+02  0.17175216685E+03  0.17308065800E+03  0.00000000000E+00 0.  1.
</event>
<event>
12   0  0.1523332E-01  0.1874893E+03  0.7957747E-01  0.1166614E+00
       21   -1    0    0  504  503  0.00000000000E+00  0.00000000000E+00  0.20324528150E+03  0.20324528150E+03  0.00000000000E+00 0. -1.
       21   -1    0    0  501  504  0.00000000000E+00  0.00000000000E+00 -0.16961747701E+03  0.16961747701E+03  0.00000000000E+00 0. -1.
        6    2    1    2  501    0 -0.54944330823E+02 -0.51563521119E+02 -0.37143715685E+01  0.18169095048E+03  0.16528801750E+03 0.  0.
       24    2    3    3    0    0 -0.21733386555E+02 -0.93380720110E+02  0.12200182478E+02  0.12577129400E+03  0.80481519382E+02 0.  0.
       -6    2    1    2    0  503  0.54944330823E+02  0.51563521119E+02  0.37342176055E+02  0.19117180803E+03  0.17168152456E+03 0.  0.
      -24    2    5    5    0    0  0.10376272214E+03  0.43532922075E+02  0.25525854242E+02  0.14008911710E+03  0.79445413249E+02 0.  0.
        5    1    3    3  501    0 -0.33210944268E+02  0.41817198991E+02 -0.15914554047E+02  0.55919656482E+02  0.47000000000E+01 0. -1.
        2    1    4    4  502    0 -0.46061807925E+02 -0.67166320128E+02  0.28743161462E+02  0.86366509943E+02  0.00000000000E+00 0. -1.
       -1    1    4    4    0  502  0.24328421370E+02 -0.26214399982E+02 -0.16542978983E+02  0.39404784055E+02  0.00000000000E+00 0.  1.
       -5    1    5    5    0  503 -0.48818391313E+02  0.80305990437E+01  0.11816321812E+02  0.51082690929E+02  0.47000000000E+01 0.  1.
       11    1    6    6    0    0  0.94805414767E+02  0.55089381029E+02  0.42578928152E+02  0.11762598222E+03  0.00000000000E+00 0. -1.
      -12    1    6    6    0    0  0.89573073689E+01 -0.11556458954E+02 -0.17053073910E+02  0.22463134880E+02  0.00000000000E+00 0.  1.
</event>
<event>
12   0  0.1523332E-01  0.2040985E+03  0.7957747E-01  0.1152686E+00
       21   -1    0    0  501  503  0.00000000000E+00  0.00000000000E+00  0.65962753698E+03  0.65962753698E+03  0.00000000000E+00 0. -1.
       21   -1    0    0  503  504  0.00000000000E+00  0.00000000000E+00 -0.27334635046E+03  0.27334635046E+03  0.00000000000E+00 0. -1.
        6    2    1    2  501    0  0.41051056604E+02 -0.98592007122E+02  0.60275249918E+03  0.63636999636E+03  0.17392706483E+03 0.  0.
       24    2    3    3    0    0  0.76567713424E+02 -0.11074009782E+03  0.54605604317E+03  0.56821145219E+03  0.81000420431E+02 0.  0.
       -6    2    1    2    0  504 -0.41051056604E+02  0.98592007122E+02 -0.21647131266E+03  0.29660389107E+03  0.17236143965E+03 0.  0.
      -24    2    5    5    0    0 -0.52399546467E+02  0.44224444731E+01 -0.15720626405E+03  0.18466135788E+03  0.81367912298E+02 0.  0.
        5    1    3    3  501    0 -0.35516656820E+02  0.12148090703E+02  0.56696456008E+02  0.68158544169E+02  0.47000000000E+01 0. -1.
        2    1    4    4  502    0  0.10992922444E+02 -0.80762433405E+02  0.34863073628E+03  0.35803184952E+03  0.00000000000E+00 0. -1.
       -1    1    4    4    0  502  0.65574790980E+02 -0.29977664419E+02  0.19742530690E+03  0.21017960267E+03  0.00000000000E+00 0.  1.
       -5    1    5    5    0  504  0.11348489863E+02  0.94169562649E+02 -0.59265048614E+02  0.11194253320E+03  0.47000000000E+01 0.  1.
       11    1    6    6    0    0 -0.32162900432E+02  0.40418169408E+02 -0.11256016903E+03  0.12384616359E+03  0.00000000000E+00 0. -1.
      -12    1    6    6    0    0 -0.20236646034E+02 -0.35995724935E+02 -0.44646095014E+02  0.60815194288E+02  0.00000000000E+00 0.  1.
</event>
<event>
12   0  0.1523332E-01  0.1876413E+03  0.7957747E-01  0.1166479E+00
       -2   -1    0    0    0  501  0.00000000000E+00  0.00000000000E+00  0.10544785822E+03  0.10544785822E+03  0.00000000000E+00 0.  1.
        2   -1    0    0  502    0  0.00000000000E+00  0.00000000000E+00 -0.42537522855E+03  0.42537522855E+03  0.00000000000E+00 0. -1.
        6    2    1    2  502    0 -0.69216429184E+02  0.28203409469E+01 -0.36865267733E+02  0.19119844866E+03  0.17435289047E+03 0.  0.
       24    2    3    3    0    0  0.31713238924E+02  0.87407093979E+01 -0.14042849590E+02  0.87444887584E+02  0.79795220509E+02 0.  0.
       -6    2    1    2    0  501  0.69216429184E+02 -0.28203409469E+01 -0.28306210260E+03  0.33962463811E+03  0.17441867014E+03 0.  0.
      -24    2    5    5    0    0 -0.27629687145E+02  0.16245981213E+02 -0.15354947838E+03  0.17671882263E+03  0.81392680516E+02 0.  0.
        5    1    3    3  502    0 -0.10092966811E+03 -0.59203684510E+01 -0.22822418143E+02  0.10375356108E+03  0.47000000000E+01 0. -1.
      -11    1    4    4    0    0  0.15286027683E+01 -0.76627923700E+01  0.30334191239E+02  0.31324402172E+02  0.00000000000E+00 0.  1.
       12    1    4    4    0    0  0.30184636156E+02  0.16403501768E+02 -0.44377040829E+02  0.56120485411E+02  0.00000000000E+00 0. -1.
       -5    1    5    5    0  501  0.96846116329E+02 -0.19066322160E+02 -0.12951262421E+03  0.16290581549E+03  0.47000000000E+01 0.  1.
        1    1    6    6  503    0 -0.18842707884E+02  0.36630471140E+02 -0.14829202909E+03  0.15390700097E+03  0.00000000000E+00 0. -1.
       -2    1    6    6    0  503 -0.87869792608E+01 -0.20384489927E+02 -0.52574492917E+01  0.22811821654E+02  0.00000000000E+00 0.  1.
</event>
<event>
12   0  0.1523332E-01  0.1835857E+03  0.7957747E-01  0.1170118E+00
        2   -1    0    0  502    0  0.00000000000E+00  0.00000000000E+00  0.17369289476E+03  0.17369289476E+03  0.00000000000E+00 0.  1.
       -2   -1    0    0    0  501  0.00000000000E+00  0.00000000000E+00 -0.27538754272E+03  0.27538754272E+03  0.00000000000E+00 0. -1.
        6    2    1    2  502    0  0.61356731474E+02 -0.19100785693E+02  0.71103290896E+02  0.19727867716E+03  0.17243465422E+03 0.  0.
       24    2    3    3    0    0  0.33009293524E+02 -0.66894134559E+02  0.41780694568E+01  0.11016463295E+03  0.80958948801E+02 0.  0.
       -6    2    1    2    0  501 -0.61356731474E+02  0.19100785693E+02 -0.17279793886E+03  0.25180176031E+03  0.17150950502E+03 0.  0.
      -24    2    5    5    0    0 -0.69489587661E+02 -0.14427458430E+02 -0.18611228664E+03  0.21452377270E+03  0.79659974037E+02 0.  0.
        5    1    3    3  502    0  0.28347437950E+02  0.47793348866E+02  0.66925221439E+02  0.87114044211E+02  0.47000000000E+01 0. -1.
        4    1    4    4  503    0  0.45105927599E+02 -0.46129185285E+02 -0.27726054226E+02  0.70222364832E+02  0.00000000000E+00 0. -1.
       -3    1    4    4    0  503 -0.12096634075E+02 -0.20764949275E+02  0.31904123683E+02  0.39942268117E+02  0.00000000000E+00 0.  1.
       -5    1    5    5    0  501  0.81328561871E+01  0.33528244123E+02  0.13314347783E+02  0.37277987615E+02  0.47000000000E+01 0.  1.
       13    1    6    6    0    0 -0.78571339882E+02  0.10379198945E+02 -0.15154855998E+03  0.17102090298E+03  0.00000000000E+00 0. -1.
      -14    1    6    6    0    0  0.90817522213E+01 -0.24806657375E+02 -0.34563726657E+02  0.43502869721E+02  0.00000000000E+00 0.  1.
</event>
<event>
12   0  0.1523332E-01  0.2092327E+03  0.7957747E-01  0.1148672E+00
        1   -1    0    0  502    0  0.00000000000E+00  0.00000000000E+00  0.78299806097E+03  0.78299806097E+03  0.00000000000E+00 0. -1.
       -1   -1    0    0    0  501  0.00000000000E+00  0.00000000000E+00 -0.67641286841E+02  0.67641286841E+02  0.00000000000E+00 0.  1.
        6    2    1    2  502    0  0.10256755316E+01  0.11770218098E+03  0.53489161491E+03  0.57438295119E+03  0.17306611308E+03 0.  0.
       24    2    3    3    0    0 -0.16435534562E+02  0.13987386070E+03  0.51311277061E+03  0.53842623695E+03  0.82360631196E+02 0.  0.
       -6    2    1    2    0  501 -0.10256755316E+01 -0.11770218098E+03  0.18046515922E+03  0.27625639662E+03  0.17290190157E+03 0.  0.
      -24    2    5    5    0    0  0.56211637024E+02 -0.77008926038E+02  0.16062306477E+03  0.20312740334E+03  0.79817605989E+02 0.  0.
        5    1    3    3  502    0  0.17461210094E+02 -0.22171679721E+02  0.21778844300E+02  0.35956714236E+02  0.47000000000E+01 0. -1.
        4    1    4    4  503    0 -0.46828899968E+02  0.75166475525E+02  0.33483596218E+03  0.34634963041E+03  0.00000000000E+00 0. -1.
       -3    1    4    4    0  503  0.30393365405E+02  0.64707385179E+02  0.17827680843E+03  0.19207660654E+03  0.00000000000E+00 0.  1.
       -5    1    5    5    0  501 -0.57237312556E+02 -0.40693254945E+02  0.19842094453E+02  0.73128993285E+02  0.47000000000E+01 0.  1.
       11    1    6    6    0    0 -0.15044854710E+01 -0.65451273676E+02  0.85966003056E+02  0.10805686644E+03  0.00000000000E+00 0. -1.
      -12    1    6    6    0    0  0.57716122495E+02 -0.11557652362E+02  0.74657061711E+02  0.95070536904E+02  0.00000000000E+00 0.  1.
</event>
<event>
12   0  0.1523332E-01  0.1791337E+03  0.7957747E-01  0.1174234E+00
        2   -1    0    0  502    0  0.00000000000E+00  0.00000000000E+00  0.20745928730E+03  0.20745928730E+03  0.00000000000E+00 0.  1.
       -2   -1    0    0    0  501  0.00000000000E+00  0.00000000000E+00 -0.17308785457E+03  0.17308785457E+03  0.00000000000E+00 0. -1.
        6    2    1    2  502    0 -0.38630738612E+02 -0.20669977893E+02 -0.44848630987E+02  0.18492646585E+03  0.17397360753E+03 0.  0.
       24    2    3    3    0    0 -0.91658432387E+02 -0.46615086036E+01 -0.30081893688E+02  0.12740817375E+03  0.83095875466E+02 0.  0.
       -6    2    1    2    0  501  0.38630738612E+02  0.20669977893E+02  0.79220063722E+02  0.19562067602E+03  0.17341294196E+03 0.  0.
      -24    2    5    5    0    0 -0.65203963705E+01 -0.29955572514E+02  0.91938787109E+02  0.12644389329E+03  0.81212472451E+02 0.  0.
        5    1    3    3  502    0  0.53027693775E+02 -0.16008469289E+02 -0.14766737299E+02  0.57518292103E+02  0.47000000000E+01 0. -1.
        2    1    4    4  503    0 -0.44069739228E+02  0.19883137299E+02 -0.50675346604E+02  0.70039073509E+02  0.00000000000E+00 0. -1.
       -1    1    4    4    0  503 -0.47588693159E+02 -0.24544645903E+02  0.20593452916E+02  0.57369100238E+02  0.00000000000E+00 0.  1.
       -5    1    5    5    0  501  0.45151134983E+02  0.50625550406E+02 -0.12718723387E+02  0.69176782729E+02  0.47000000000E+01 0.  1.
       11    1    6    6    0    0 -0.15142018643E+02 -0.55006377312E+02  0.45478144219E+02  0.72960563836E+02  0.00000000000E+00 0. -1.
      -12    1    6    6    0    0  0.86216222727E+01  0.25050804799E+02  0.46460642889E+02  0.53483329453E+02  0.00000000000E+00 0.  1.
</event>
<event>
12   0  0.1523332E-01  0.1921494E+03  0.7957747E-01  0.1162551E+00
       21   -1    0    0  501  503  0.00000000000E+00  0.00000000000E+00  0.25660537660E+03  0.25660537660E+03  0.00000000000E+00 0. -1.
       21   -1    0    0  503  504  0.00000000000E+00  0.00000000000E+00 -0.16363176075E+03  0.16363176075E+03  0.00000000000E+00 0. -1.
        6    2    1    2  501    0  0.79762022029E+01 -0.82610889521E+02  0.12023838594E+03  0.22666859610E+03  0.17330090633E+03 0.  0.
       24    2    3    3    0    0  0.46730015118E+01 -0.41067647644E+02  0.15005583356E+03  0.17521063012E+03  0.80458828575E+02 0.  0.
       -6    2    1    2    0  504 -0.79762022029E+01  0.82610889521E+02 -0.27264770095E+02  0.19356854125E+03  0.17273457559E+03 0.  0.
      -24    2    5    5    0    0 -0.44758724708E+02  0.25742814438E+02 -0.65435379896E+02  0.11568389978E+03  0.80218076472E+02 0.  0.
        5    1    3    3  501    0  0.33032006911E+01 -0.41543241877E+02 -0.29817447617E+02  0.51457965981E+02  0.47000000000E+01 0. -1.
      -11    1    4    4    0    0  0.24942656186E+02  0.15848803382E+02  0.58073950984E+02  0.65160605039E+02  0.00000000000E+00 0.  1.
       12    1    4    4    0    0 -0.20269654674E+02 -0.56916451026E+02  0.91981882577E+02  0.11005002508E+03  0.00000000000E+00 0. -1.
       -5    1    5    5    0  504  0.36782522505E+02  0.56868075084E+02  0.38170609801E+02  0.77884641478E+02  0.47000000000E+01 0.  1.
        3    1    6    6  502    0 -0.34910859659E+02  0.46408265889E+02 -0.14522787698E+02  0.59861562187E+02  0.00000000000E+00 0. -1.
       -4    1    6    6    0  502 -0.98478650488E+01 -0.20665451451E+02 -0.50912592198E+02  0.55822337590E+02  0.00000000000E+00 0.  1.
</event>
<event>
12   0  0.1523332E-01  0.1940545E+03  0.7957747E-01  0.1160926E+00
       -1   -1    0    0    0  501  0.00000000000E+00  0.00000000000E+00  0.13691505502E+03  0.13691505502E+03  0.00000000000E+00 0. -1.
        1   -1    0    0  502    0  0.00000000000E+00  0.00000000000E+00 -0.27719633163E+03  0.27719633163E+03  0.00000000000E+00 0.  1.
        6    2    1    2  502    0 -0.98106125351E+02 -0.17243257094E+02 -0.89370406249E+02  0.21962421513E+03  0.17414242623E+03 0.  0.
       24    2    3    3    0    0 -0.20275999304E+01  0.72834059003E+01  0.69592244312E+00  0.85584393403E+02  0.85246964305E+02 0.  0.
       -6    2    1    2    0  501  0.98106125351E+02  0.17243257094E+02 -0.50910870357E+02  0.19448717152E+03  0.15909494466E+03 0.  0.
      -24    2    5    5    0    0  0.11557162253E+03  0.50665943929E+02 -0.40018582440E+02  0.15495425456E+03  0.80532578868E+02 0.  0.
        5    1    3    3  502    0 -0.96078525420E+02 -0.24526662995E+02 -0.90066328692E+02  0.13403982173E+03  0.47000000000E+01 0. -1.
      -11    1    4    4    0    0  0.11260476392E+02  0.12864165298E+02 -0.39414819209E+02  0.42962926468E+02  0.00000000000E+00 0.  1.
       12    1    4    4    0    0 -0.13288076322E+02 -0.55807593976E+01  0.40110741652E+02  0.42621466935E+02  0.00000000000E+00 0. -1.
       -5    1    5    5    0  501 -0.17465497175E+02 -0.33422686834E+02 -0.10892287918E+02  0.39532916954E+02  0.47000000000E+01 0.  1.
        1    1    6    6  503    0  0.27675660961E+02  0.48059454352E+02 -0.37568716850E+02  0.66985534618E+02  0.00000000000E+00 0. -1.
       -2    1    6    6    0  503  0.87895961565E+02  0.26064895764E+01 -0.24498655901E+01  0.87968719945E+02  0.00000000000E+00 0.  1.
</event>
<event>
12   0  0.1523332E-01  0.2193201E+03  0.7957747E-01  0.1141141E+00
       21   -1    0    0  501  503  0.00000000000E+00  0.00000000000E+00  0.14838468961E+03  0.14838468961E+03  0.00000000000E+00 0.  1.
       21   -1    0    0  503  504  0.00000000000E+00  0.00000000000E+00 -0.31834767223E+03  0.31834767223E+03  0.00000000000E+00 0.  1.
        6    2    1    2  501    0  0.12504374806E+03  0.11021901451E+02 -0.65252068627E+02  0.22882117397E+03  0.17984403231E+03 0.  0.
       24    2    3    3    0    0  0.16137249524E+03  0.19933763342E+02 -0.53067835143E+02  0.18920117020E+03  0.80885416096E+02 0.  0.
       -6    2    1    2    0  504 -0.12504374806E+03 -0.11021901451E+02 -0.10471091399E+03  0.23791118787E+03  0.17285814001E+03 0.  0.
      -24    2    5    5    0    0 -0.88398658930E+02 -0.32850673066E+02  0.44957318980E+01  0.12057602974E+03  0.74999184804E+02 0.  0.
        5    1    3    3  501    0 -0.36328747177E+02 -0.89118618911E+01 -0.12184233484E+02  0.39620003778E+02  0.47000000000E+01 0. -1.
        2    1    4    4  502    0  0.85273060991E+02  0.60040575437E+01  0.14232594567E+02  0.86660893059E+02  0.00000000000E+00 0. -1.
       -1    1    4    4    0  502  0.76099434246E+02  0.13929705798E+02 -0.67300429710E+02  0.10254027714E+03  0.00000000000E+00 0.  1.
       -5    1    5    5    0  504 -0.36645089130E+02  0.21828771615E+02 -0.10920664589E+03  0.11733515813E+03  0.47000000000E+01 0.  1.
       11    1    6    6    0    0  0.12090530680E+02 -0.58895825195E+01  0.94148031471E+01  0.16416657172E+02  0.00000000000E+00 0. -1.
      -12    1    6    6    0    0 -0.10048918961E+03 -0.26961090546E+02 -0.49190712490E+01  0.10415937257E+03  0.00000000000E+00 0.  1.
</event>
<event>
12   0  0.1523332E-01  0.2005516E+03  0.7957747E-01  0.1155535E+00
        1   -1    0    0  502    0  0.00000000000E+00  0.00000000000E+00  0.16212039178E+04  0.16212039178E+04  0.00000000000E+00 0. -1.
       -1   -1    0    0    0  501  0.00000000000E+00  0.00000000000E+00 -0.25001075276E+02  0.25001075276E+02  0.00000000000E+00 0.  1.
        6    2    1    2  502    0  0.54362175499E+01  0.10973917806E+03  0.71152676213E+03  0.73813504033E+03  0.16279055523E+03 0.  0.
       24    2    3    3    0    0 -0.27375094925E+02  0.73899438585E+01  0.24763826318E+03  0.26193489603E+03  0.80505734439E+02 0.  0.
       -6    2    1    2    0  501 -0.54362175499E+01 -0.10973917806E+03  0.88467608043E+03  0.90806995278E+03  0.17282080951E+03 0.  0.
      -24    2    5    5    0    0  0.13771438881E+02 -0.73965817084E+02  0.84124741587E+03  0.84843098627E+03  0.80481855916E+02 0.  0.
        5    1    3    3  502    0  0.32811312475E+02  0.10234923420E+03  0.46388849895E+03  0.47620014430E+03  0.47000000000E+01 0. -1.
        2    1    4    4  503    0  0.22716198481E+01 -0.28399849926E+02  0.16212079688E+03  0.16460517766E+03  0.00000000000E+00 0. -1.
       -1    1    4    4    0  503 -0.29646714773E+02  0.35789793784E+02  0.85517466300E+02  0.97329718371E+02  0.00000000000E+00 0.  1.
       -5    1    5    5    0  501 -0.19207656431E+02 -0.35773360976E+02  0.43428664559E+02  0.59638966511E+02  0.47000000000E+01 0.  1.
       11    1    6    6    0    0  0.11564963022E+02 -0.67715556100E+02  0.32686179521E+03  0.33400266178E+03  0.00000000000E+00 0. -1.
      -12    1    6    6    0    0  0.22064758590E+01 -0.62502609839E+01  0.51438562066E+03  0.51442832449E+03  0.00000000000E+00 0.  1.
</event>
<event>
12   0  0.1523332E-01  0.2235942E+03  0.7957747E-01  0.1138083E+00
       21   -1    0    0  501  503  0.00000000000E+00  0.00000000000E+00  0.24042384242E+03  0.24042384242E+03  0.00000000000E+00 0.  1.
       21   -1    0    0  503  504  0.00000000000E+00  0.00000000000E+00 -0.24068733063E+03  0.24068733063E+03  0.00000000000E+00 0.  1.
        6    2    1    2  501    0  0.13064343071E+03 -0.41165569978E+02  0.93268453535E+02  0.23874245711E+03  0.17186228865E+03 0.  0.
       24    2    3    3    0    0  0.53024556251E+02 -0.75581163507E+02  0.20134802578E+02  0.12658300074E+03  0.84224283662E+02 0.  0.
       -6    2    1    2    0  504 -0.13064343071E+03  0.41165569978E+02 -0.93531941747E+02  0.24236871595E+03  0.17672594660E+03 0.  0.
      -24    2    5    5    0    0 -0.33055501999E+02  0.12298987299E+02  0.22730667105E+02  0.87786156636E+02  0.77108979820E+02 0.  0.
        5    1    3    3  501    0  0.77618874458E+02  0.34415593530E+02  0.73133650956E+02  0.11215945637E+03  0.47000000000E+01 0. -1.
      -13    1    4    4    0    0  0.26986232241E+02 -0.59641841328E+01  0.40943193620E+02  0.49398110558E+02  0.00000000000E+00 0.  1.
       14    1    4    4    0    0  0.26038324010E+02 -0.69616979374E+02 -0.20808391041E+02  0.77184890181E+02  0.00000000000E+00 0. -1.
       -5    1    5    5    0  504 -0.97587928711E+02  0.28866582678E+02 -0.11626260885E+03  0.15458255931E+03  0.47000000000E+01 0.  1.
        1    1    6    6  502    0 -0.45824452723E+02 -0.13041788168E+02 -0.52529318690E+01  0.47932890579E+02  0.00000000000E+00 0. -1.
       -2    1    6    6    0  502  0.12768950724E+02  0.25340775468E+02  0.27983598974E+02  0.39853266057E+02  0.00000000000E+00 0.  1.
</event>
<event>
12   0  0.1523332E-01  0.2562107E+03  0.7957747E-01  0.1116962E+00
       21   -1    0    0  504  503  0.00000000000E+00  0.00000000000E+00  0.89038338472E+02  0.89038338472E+02  0.00000000000E+00 0. -1.
       21   -1    0    0  501  504  0.00000000000E+00  0.00000000000E+00 -0.72562260095E+03  0.72562260095E+03  0.00000000000E+00 0.  1.
        6    2    1    2  501    0  0.10088497462E+03 -0.15008462380E+03 -0.28353177769E+03  0.38214418435E+03  0.18149582989E+03 0.  0.
       24    2    3    3    0    0  0.58193023928E+02 -0.41081855144E+02 -0.44557976732E+02  0.11599615454E+03  0.79972168413E+02 0.  0.
       -6    2    1    2    0  503 -0.10088497462E+03  0.15008462380E+03 -0.35305248478E+03  0.43251675507E+03  0.17239928655E+03 0.  0.
      -24    2    5    5    0    0 -0.65440858224E+02  0.91867528886E+02 -0.10165537375E+03  0.17200166345E+03  0.80799804629E+02 0.  0.
        5    1    3    3  501    0  0.42691950687E+02 -0.10900276865E+03 -0.23897380096E+03  0.26614802981E+03  0.47000000000E+01 0. -1.
      -11    1    4    4    0    0  0.11074077465E+02  0.14747442886E+02 -0.38500809226E+02  0.42689982132E+02  0.00000000000E+00 0.  1.
       12    1    4    4    0    0  0.47118946463E+02 -0.55829298030E+02 -0.60571675063E+01  0.73306172404E+02  0.00000000000E+00 0. -1.
       -5    1    5    5    0  503 -0.35444116391E+02  0.58217094911E+02 -0.25139711103E+03  0.26051509162E+03  0.47000000000E+01 0.  1.
        3    1    6    6  502    0  0.16395109240E+02  0.28337508320E+02 -0.11605029375E+02  0.34734574873E+02  0.00000000000E+00 0. -1.
       -4    1    6    6    0  502 -0.81835967465E+02  0.63530020566E+02 -0.90050344373E+02  0.13726708857E+03  0.00000000000E+00 0.  1.
</event>
<event>
12   0  0.1523332E-01  0.1808942E+03  0.7957747E-01  0.1172591E+00
       -2   -1    0    0    0  501  0.00000000000E+00  0.00000000000E+00  0.16205342736E+03  0.16205342736E+03  0.00000000000E+00 0.  1.
        2   -1    0    0  502    0  0.00000000000E+00  0.00000000000E+00 -0.20216322105E+03  0.20216322105E+03  0.00000000000E+00 0. -1.
        6    2    1    2  502    0 -0.14583113776E+02 -0.49810768054E+02 -0.13877227939E+02  0.18187686940E+03  0.17376086540E+03 0.  0.
       24    2    3    3    0    0  0.25710317023E+02  0.30573843130E+02  0.80619257670E+00  0.90646725705E+02  0.81365832198E+02 0.  0.
       -6    2    1    2    0  501  0.14583113776E+02  0.49810768054E+02 -0.26232565758E+02  0.18233977901E+03  0.17281744033E+03 0.  0.
      -24    2    5    5    0    0  0.20825529047E+01  0.90470416484E+02 -0.52266638956E+02  0.13224652597E+03  0.81043869594E+02 0.  0.
        5    1    3    3  502    0 -0.40293430799E+02 -0.80384611184E+02 -0.14683420516E+02  0.91230143696E+02  0.47000000000E+01 0. -1.
      -13    1    4    4    0    0  0.80496886518E+01 -0.19439856040E+02  0.24722344045E+02  0.32463822716E+02  0.00000000000E+00 0.  1.
       14    1    4    4    0    0  0.17660628372E+02  0.50013699170E+02 -0.23916151469E+02  0.58182902989E+02  0.00000000000E+00 0. -1.
       -5    1    5    5    0  501  0.12500560871E+02 -0.40659648429E+02  0.26034073198E+02  0.50093253036E+02  0.47000000000E+01 0.  1.
        3    1    6    6  503    0  0.38577097768E+02  0.23592535185E+02 -0.17258403211E+02  0.48400957326E+02  0.00000000000E+00 0. -1.
       -4    1    6    6    0  503 -0.36494544863E+02  0.66877881299E+02 -0.35008235744E+02  0.83845568647E+02  0.00000000000E+00 0.  1.
</event>
<event>
12   0  0.1523332E-01  0.2177911E+03  0.7957747E-01  0.1142254E+00
        3   -1    0    0  502    0  0.00000000000E+00  0.00000000000E+00  0.22024958300E+03  0.22024958300E+03  0.00000000000E+00 0. -1.
       -3   -1    0    0    0  501  0.00000000000E+00  0.00000000000E+00 -0.22895164423E+03  0.22895164423E+03  0.00000000000E+00 0.  1.
        6    2    1    2  502    0 -0.70466991350E+02 -0.10819166253E+03  0.50381378093E+02  0.22241680954E+03  0.17395379041E+03 0.  0.
       24    2    3    3    0    0 -0.55870628746E+02 -0.59309270826E+02  0.98267511404E+02  0.15229039667E+03  0.83046639649E+02 0.  0.
       -6    2    1    2    0  501  0.70466991350E+02  0.10819166253E+03 -0.59083439323E+02  0.22678441769E+03  0.17683123761E+03 0.  0.
      -24    2    5    5    0    0  0.35997544975E+01  0.10869296931E+02  0.29921802738E+02  0.78842221803E+02  0.72039446219E+02 0.  0.
        5    1    3    3  502    0 -0.14596362604E+02 -0.48882391699E+02 -0.47886133311E+02  0.70126412877E+02  0.47000000000E+01 0. -1.
      -11    1    4    4    0    0 -0.41401785527E+01  0.15458772279E+02  0.43023047389E+02  0.45903129801E+02  0.00000000000E+00 0.  1.
       12    1    4    4    0    0 -0.51730450193E+02 -0.74768043105E+02  0.55244464015E+02  0.10638726687E+03  0.00000000000E+00 0. -1.
       -5    1    5    5    0  501  0.66867236852E+02  0.97322365594E+02 -0.89005242061E+02  0.14794219589E+03  0.47000000000E+01 0.  1.
        3    1    6    6  503    0  0.21337219442E+02 -0.22475812889E+02  0.54894450761E+00  0.30995813243E+02  0.00000000000E+00 0. -1.
       -4    1    6    6    0  503 -0.17737464944E+02  0.33345109820E+02  0.29372858230E+02  0.47846408560E+02  0.00000000000E+00 0.  1.
</event>
<event>
12   0  0.1523332E-01  0.2294596E+03  0.7957747E-01  0.1134005E+00
       21   -1    0    0  501  503  0.00000000000E+00  0.00000000000E+00  0.10270045718E+03  0.10270045718E+03  0.00000000000E+00 0. -1.
       21   -1    0    0  503  504  0.00000000000E+00  0.00000000000E+00 -0.91080459966E+03  0.91080459966E+03  0.00000000000E+00 0. -1.
        6    2    1    2  501    0 -0.48783695973E+02 -0.12506698488E+03 -0.63350046765E+02  0.23804402597E+03  0.18609172516E+03 0.  0.
       24    2    3    3    0    0  0.60938675298E+01  0.11724601965E+02 -0.32075265423E+02  0.87300246142E+02  0.80111851881E+02 0.  0.
       -6    2    1    2    0  504  0.48783695973E+02  0.12506698488E+03 -0.74475409571E+03  0.77546103087E+03  0.16929130994E+03 0.  0.
      -24    2    5    5    0    0  0.32473947485E+02  0.75919536453E+02 -0.69185790857E+03  0.70128842004E+03  0.79496849988E+02 0.  0.
        5    1    3    3  501    0 -0.54877563503E+02 -0.13679158685E+03 -0.31274781342E+02  0.15074377983E+03  0.47000000000E+01 0. -1.
      -11    1    4    4    0    0 -0.29553888274E+02  0.27728966242E+02 -0.77156179815E+01  0.41253589442E+02  0.00000000000E+00 0.  1.
       12    1    4    4    0    0  0.35647755804E+02 -0.16004364277E+02 -0.24359647442E+02  0.46046656700E+02  0.00000000000E+00 0. -1.
       -5    1    5    5    0  504  0.16309748488E+02  0.49147448429E+02 -0.52896187145E+02  0.74172610830E+02  0.47000000000E+01 0.  1.
        3    1    6    6  502    0  0.55027185717E+02  0.39618644190E+02 -0.32842809817E+03  0.33535450467E+03  0.00000000000E+00 0. -1.
       -4    1    6    6    0  502 -0.22553238232E+02  0.36300892263E+02 -0.36342981040E+03  0.36593391537E+03  0.00000000000E+00 0.  1.
</event>
<event>
12   0  0.1523332E-01  0.1912873E+03  0.7957747E-01  0.1163293E+00
       21   -1    0    0  504  503  0.00000000000E+00  0.00000000000E+00  0.76531001087E+03  0.76531001087E+03  0.00000000000E+00 0.  1.
       21   -1    0    0  501  504  0.00000000000E+00  0.00000000000E+00 -0.47748963750E+02  0.47748963750E+02  0.00000000000E+00 0.  1.
        6    2    1    2  501    0  0.51401805894E+02 -0.60647279277E+02  0.32923620864E+03  0.38017677082E+03  0.17267790207E+03 0.  0.
       24    2    3    3    0    0  0.40888509876E+02 -0.25793713892E+01  0.69300694353E+02  0.11358537392E+03  0.80128194371E+02 0.  0.
       -6    2    1    2    0  503 -0.51401805894E+02  0.60647279277E+02  0.38832483849E+03  0.43288220380E+03  0.17398443622E+03 0.  0.
      -24    2    5    5    0    0 -0.40645794476E+02 -0.30895423645E+02  0.23143015251E+03  0.25085530818E+03  0.82230543853E+02 0.  0.
        5    1    3    3  501    0  0.10513296018E+02 -0.58067907888E+02  0.25993551428E+03  0.26659139691E+03  0.47000000000E+01 0. -1.
        4    1    4    4  502    0  0.53093178825E+02  0.24653142957E+02  0.35349644327E+02  0.68383188354E+02  0.00000000000E+00 0. -1.
       -3    1    4    4    0  502 -0.12204668949E+02 -0.27232514346E+02  0.33951050027E+02  0.45202185563E+02  0.00000000000E+00 0.  1.
       -5    1    5    5    0  503 -0.10756011418E+02  0.91542702922E+02  0.15689468598E+03  0.18202689562E+03  0.47000000000E+01 0.  1.
       11    1    6    6    0    0  0.11951985335E+02 -0.24350141025E+02  0.15789957662E+03  0.16021253265E+03  0.00000000000E+00 0. -1.
      -12    1    6    6    0    0 -0.52597779811E+02 -0.65452826197E+01  0.73530575887E+02  0.90642775531E+02  0.00000000000E+00 0.  1.
</event>
<event>
12   0  0.1523332E-01  0.2091757E+03  0.7957747E-01  0.1148716E+00
       21   -1    0    0  501  503  0.00000000000E+00  0.00000000000E+00  0.59455963877E+03  0.59455963877E+03  0.00000000000E+00 0. -1.
       21   -1    0    0  503  504  0.00000000000E+00  0.00000000000E+00 -0.10379437621E+03  0.10379437621E+03  0.00000000000E+00 0. -1.
        6    2    1    2  501    0  0.11636395039E+03 -0.54320588705E+01  0.43472867585E+03  0.48180242982E+03  0.17197233370E+03 0.  0.
       24    2    3    3    0    0  0.70261579361E+00 -0.95891686299E+01  0.10772577832E+03  0.13489060980E+03  0.80611335874E+02 0.  0.
       -6    2    1    2    0  504 -0.11636395039E+03  0.54320588705E+01  0.56036586715E+02  0.21655158516E+03  0.17373662185E+03 0.  0.
      -24    2    5    5    0    0 -0.14254262721E+03  0.16741292235E+02  0.77788625793E+02  0.18037890094E+03  0.76725524859E+02 0.  0.
        5    1    3    3  501    0  0.11566133460E+03  0.41571097594E+01  0.32700289753E+03  0.34691182002E+03  0.47000000000E+01 0. -1.
        2    1    4    4  502    0 -0.15467447921E+02  0.32553679194E+02  0.47278281547E+02  0.59449305128E+02  0.00000000000E+00 0. -1.
       -1    1    4    4    0  502  0.16170063714E+02 -0.42142847824E+02  0.60447496777E+02  0.75441304667E+02  0.00000000000E+00 0.  1.
       -5    1    5    5    0  504  0.26178676822E+02 -0.11309233364E+02 -0.21752039078E+02  0.36172684217E+02  0.47000000000E+01 0.  1.
       13    1    6    6    0    0 -0.92796018994E+02 -0.26581141745E+02  0.51087830234E+02  0.10921366506E+03  0.00000000000E+00 0. -1.
      -14    1    6    6    0    0 -0.49746608218E+02  0.43322433979E+02  0.26700795559E+02  0.71165235885E+02  0.00000000000E+00 0.  1.
</event>
<event>
12   0  0.1523332E-01  0.3585746E+03  0.7957747E-01  0.1068033E+00
       -2   -1    0    0    0  501  0.00000000000E+00  0.00000000000E+00  0.19926310888E+03  0.19926310888E+03  0.00000000000E+00 0.  1.
        2   -1    0    0  502    0  0.00000000000E+00  0.00000000000E+00 -0.65260012162E+03  0.65260012162E+03  0.00000000000E+00 0. -1.
        6    2    1    2  502    0 -0.13256987825E+03  0.28484258297E+03 -0.18142420621E+03  0.40177169034E+03  0.17261424874E+03 0.  0.
       24    2    3    3    0    0 -0.14071761983E+03  0.16025439556E+03 -0.83196687600E+02  0.24283982586E+03  0.81034390037E+02 0.  0.
       -6    2    1    2    0  501  0.13256987825E+03 -0.28484258297E+03 -0.27191280652E+03  0.45009154017E+03  0.17301950898E+03 0.  0.
      -24    2    5    5    0    0  0.18211077538E+02 -0.43372732490E+02 -0.78726763624E+02  0.12035139829E+03  0.77934065030E+02 0.  0.
        5    1    3    3  502    0  0.81477415822E+01  0.12458818741E+03 -0.98227518611E+02  0.15893186448E+03  0.47000000000E+01 0. -1.
        2    1    4    4  503    0 -0.43625632706E+02  0.13719370857E+02  0.52994908475E+01  0.46038044799E+02  0.00000000000E+00 0. -1.
       -1    1    4    4    0  503 -0.97091987125E+02  0.14653502470E+03 -0.88496178448E+02  0.19680178106E+03  0.00000000000E+00 0.  1.
       -5    1    5    5    0  501  0.11435880071E+03 -0.24146985048E+03 -0.19318604290E+03  0.32974014187E+03  0.47000000000E+01 0.  1.
       11    1    6    6    0    0 -0.11221805076E+02 -0.55445307222E+02 -0.35890829111E+02  0.66994496911E+02  0.00000000000E+00 0. -1.
      -12    1    6    6    0    0  0.29432882614E+02  0.12072574732E+02 -0.42835934513E+02  0.53356901383E+02  0.00000000000E+00 0.  1.
</event>
<event>
12   0  0.1523332E-01  0.2123740E+03  0.7957747E-01  0.1146278E+00
        2   -1    0    0  502    0  0.00000000000E+00  0.00000000000E+00  0.50740019924E+03  0.50740019924E+03  0.00000000000E+00 0. -1.
       -2   -1    0    0    0  501  0.00000000000E+00  0.00000000000E+00 -0.11962747301E+03  0.11962747301E+03  0.00000000000E+00 0.  1.
        6    2    1    2  502    0 -0.10010802925E+03  0.69547229993E+02  0.35341825424E+03  0.41279012476E+03  0.17502225557E+03 0.  0.
       24    2    3    3    0    0 -0.78002577234E+02  0.73714205886E+02  0.36354125173E+03  0.38767877722E+03  0.81329000916E+02 0.  0.
       -6    2    1    2    0  501  0.10010802925E+03 -0.69547229993E+02  0.34354471988E+02  0.21423754749E+03  0.17279774966E+03 0.  0.
      -24    2    5    5    0    0  0.24234486187E+02 -0.34678966373E+02 -0.42557542565E+02  0.10061475784E+03  0.80760411317E+02 0.  0.
        5    1    3    3  502    0 -0.22105452020E+02 -0.41669758930E+01 -0.10122997490E+02  0.25111347540E+02  0.47000000000E+01 0. -1.
        2    1    4    4  503    0 -0.34162939119E+02  0.41613609520E+02  0.29666722726E+03  0.30151325449E+03  0.00000000000E+00 0. -1.
       -1    1    4    4    0  503 -0.43839638114E+02  0.32100596366E+02  0.66874024475E+02  0.86165522726E+02  0.00000000000E+00 0.  1.
       -5    1    5    5    0  501  0.75873543066E+02 -0.34868263620E+02  0.76912014553E+02  0.11362278965E+03  0.47000000000E+01 0.  1.
       13    1    6    6    0    0 -0.21230579469E+02 -0.23579442278E+02  0.69570958048E+01  0.32482745955E+02  0.00000000000E+00 0. -1.
      -14    1    6    6    0    0  0.45465065657E+02 -0.11099524095E+02 -0.49514638369E+02  0.68132011883E+02  0.00000000000E+00 0.  1.
</event>
<event>
12   0  0.1523332E-01  0.1858682E+03  0.7957747E-01  0.1168058E+00
       21   -1    0    0  501  503  0.00000000000E+00  0.00000000000E+00  0.32555385928E+03  0.32555385928E+03  0.00000000000E+00 0.  1.
       21   -1    0    0  503  504  0.00000000000E+00  0.00000000000E+00 -0.37884139125E+03  0.37884139125E+03  0.00000000000E+00 0.  1.
        6    2    1    2  501    0  0.55943883538E+02 -0.30634698032E+02  0.27262445341E+03  0.32920780106E+03  0.17316316253E+03 0.  0.
       24    2    3    3    0    0  0.25521851802E+02 -0.85814388876E+02  0.19746987685E+03  0.23102125069E+03  0.79755825804E+02 0.  0.
       -6    2    1    2    0  504 -0.55943883538E+02  0.30634698032E+02 -0.32591198538E+03  0.37518744947E+03  0.17458177797E+03 0.  0.
      -24    2    5    5    0    0  0.66985331099E+01 -0.16071255654E+02 -0.71528412793E+02  0.10903221192E+03  0.80427319961E+02 0.  0.
        5    1    3    3  501    0  0.30422031736E+02  0.55179690844E+02  0.75154576558E+02  0.98186550373E+02  0.47000000000E+01 0. -1.
      -13    1    4    4    0    0 -0.24498903844E+02 -0.60350418273E+01  0.50892202591E+02  0.56803470880E+02  0.00000000000E+00 0.  1.
       14    1    4    4    0    0  0.50020755646E+02 -0.79779347049E+02  0.14657767426E+03  0.17421777981E+03  0.00000000000E+00 0. -1.
       -5    1    5    5    0  504 -0.62642416648E+02  0.46705953686E+02 -0.25438357258E+03  0.26615523755E+03  0.47000000000E+01 0.  1.
        1    1    6    6  502    0 -0.11188542849E+01 -0.37482873925E+02 -0.76951173502E+02  0.85601990491E+02  0.00000000000E+00 0. -1.
       -2    1    6    6    0  502  0.78173873948E+01  0.21411618271E+02  0.54227607092E+01  0.23430221433E+02  0.00000000000E+00 0.  1.
</event>
<event>
12   0  0.1523332E-01  0.2020880E+03  0.7957747E-01  0.1154293E+00
       -2   -1    0    0    0  501  0.00000000000E+00  0.00000000000E+00  0.34010939979E+02  0.34010939979E+02  0.00000000000E+00 0.  1.
        2   -1    0    0  502    0  0.00000000000E+00  0.00000000000E+00 -0.15088016498E+04  0.15088016498E+04  0.00000000000E+00 0. -1.
        6    2    1    2  502    0  0.85594350727E+02  0.50092195902E+02 -0.38210865363E+03  0.43116580446E+03  0.17338196788E+03 0.  0.
       24    2    3    3    0    0  0.36925316673E+02 -0.19638368263E+02 -0.95241931813E+02  0.13192404176E+03  0.81140512072E+02 0.  0.
       -6    2    1    2    0  501 -0.85594350727E+02 -0.50092195902E+02 -0.10926820562E+04  0.11116467854E+04  0.17879842963E+03 0.  0.
      -24    2    5    5    0    0 -0.11012982143E+01 -0.47181143102E+02 -0.31330823282E+03  0.32768683947E+03  0.83602289959E+02 0.  0.
        5    1    3    3  502    0  0.48669034055E+02  0.69730564165E+02 -0.28686672182E+03  0.29924176270E+03  0.47000000000E+01 0. -1.
        4    1    4    4  503    0  0.78079915610E+01 -0.49181658643E+02 -0.52764955930E+02  0.72553020981E+02  0.00000000000E+00 0. -1.
       -3    1    4    4    0  503  0.29117325112E+02  0.29543290380E+02 -0.42476975883E+02  0.59371020779E+02  0.00000000000E+00 0.  1.
       -5    1    5    5    0  501 -0.84493052513E+02 -0.29110528001E+01 -0.77937382341E+03  0.78395994589E+03  0.47000000000E+01 0.  1.
       11    1    6    6    0    0  0.11181675625E+02 -0.66711277966E+02 -0.27287977946E+03  0.28113839744E+03  0.00000000000E+00 0. -1.
      -12    1    6    6    0    0 -0.12282973839E+02  0.19530134864E+02 -0.40428453361E+02  0.46548442029E+02  0.00000000000E+00 0.  1.
</event>
<event>
12   0  0.1523332E-01  0.2081867E+03  0.7957747E-01  0.1149480E+00
       21   -1    0    0  504  503  0.00000000000E+00  0.00000000000E+00  0.18695620663E+03  0.18695620663E+03  0.00000000000E+00 0.  1.
       21   -1    0    0  501  504  0.00000000000E+00  0.00000000000E+00 -0.23613370668E+03  0.23613370668E+03  0.00000000000E+00 0.  1.
        6    2    1    2  501    0 -0.13806281056E+02  0.10844440372E+03  0.14227335864E+02  0.20867229448E+03  0.17717479308E+03 0.  0.
       24    2    3    3    0    0  0.52880836951E+02  0.89420637348E+02 -0.11672938151E+02  0.13449689701E+03  0.84621064284E+02 0.  0.
       -6    2    1    2    0  503  0.13806281056E+02 -0.10844440372E+03 -0.63404835917E+02  0.21441761883E+03  0.17321645404E+03 0.  0.
      -24    2    5    5    0    0 -0.25826388055E+02 -0.12721167899E+03 -0.64112254725E+02  0.17030923501E+03  0.89694151046E+02 0.  0.
        5    1    3    3  501    0 -0.66687118007E+02  0.19023766374E+02  0.25900274015E+02  0.74175397466E+02  0.47000000000E+01 0. -1.
        2    1    4    4  502    0  0.65142189452E+02  0.69387122612E+02 -0.34988566318E+02  0.10140156510E+03  0.00000000000E+00 0. -1.
       -1    1    4    4    0  502 -0.12261352501E+02  0.20033514736E+02  0.23315628167E+02  0.33095331916E+02  0.00000000000E+00 0.  1.
       -5    1    5    5    0  503  0.39632669112E+02  0.18767275268E+02  0.70741880836E+00  0.44108383821E+02  0.47000000000E+01 0.  1.
       13    1    6    6    0    0  0.11664744602E+02  0.57522291476E+01  0.71734193620E+01  0.14853025016E+02  0.00000000000E+00 0. -1.
      -14    1    6    6    0    0 -0.37491132657E+02 -0.13296390814E+03 -0.71285674087E+02  0.15545620999E+03  0.00000000000E+00 0.  1.
</event>
<event>
12   0  0.1523332E-01  0.1847137E+03  0.7957747E-01  0.1169096E+00
       21   -1    0    0  501  503  0.00000000000E+00  0.00000000000E+00  0.11004816051E+04  0.11004816051E+04  0.00000000000E+00 0. -1.
       21   -1    0    0  503  504  0.00000000000E+00  0.00000000000E+00 -0.55176725863E+02  0.55176725863E+02  0.00000000000E+00 0. -1.
        6    2    1    2  501    0  0.27440868519E+02 -0.54816681950E+02  0.90634468647E+03  0.92451101330E+03  0.17176161717E+03 0.  0.
       24    2    3    3    0    0  0.20978126746E+02 -0.94660431761E+02  0.48361245123E+03  0.49983004581E+03  0.80922138956E+02 0.  0.
       -6    2    1    2    0  504 -0.27440868519E+02  0.54816681950E+02  0.13896019280E+03  0.23114731769E+03  0.17424487771E+03 0.  0.
      -24    2    5    5    0    0  0.48301064384E+02  0.16029908776E+02  0.61005208400E+02  0.11564699836E+03  0.84039526309E+02 0.  0.
        5    1    3    3  501    0  0.64627417738E+01  0.39843749812E+02  0.42273223525E+03  0.42468096749E+03  0.47000000000E+01 0. -1.
      -13    1    4    4    0    0  0.25164493556E+02 -0.62873923915E+02  0.14880481790E+03  0.16349084340E+03  0.00000000000E+00 0.  1.
       14    1    4    4    0    0 -0.41863668107E+01 -0.31786507846E+02  0.33480763333E+03  0.33633920242E+03  0.00000000000E+00 0. -1.
       -5    1    5    5    0  504 -0.75741932904E+02  0.38786773174E+02  0.77954984396E+02  0.11550031933E+03  0.47000000000E+01 0.  1.
        3    1    6    6  502    0  0.20498653088E+02  0.46288338502E+02  0.53898718319E+02  0.73945093794E+02  0.00000000000E+00 0. -1.
       -4    1    6    6    0  502  0.27802411296E+02 -0.30258429727E+02  0.71064900812E+01  0.41701904569E+02  0.00000000000E+00 0.  1.
</event>
<event>
12   0  0.1523332E-01  0.1749415E+03  0.7957747E-01  0.1178232E+00
       -4   -1    0    0    0  501  0.00000000000E+00  0.00000000000E+00  0.58080454606E+03  0.58080454606E+03  0.00000000000E+00 0. -1.
        4   -1    0    0  502    0  0.00000000000E+00  0.00000000000E+00 -0.60529832217E+02  0.60529832217E+02  0.00000000000E+00 0.  1.
        6    2    1    2  502    0  0.41218013743E+01  0.15127484458E+02  0.14194944127E+03  0.22357552292E+03  0.17201901214E+03 0.  0.
       24    2    3    3    0    0  0.29271023614E+02  0.66332865511E+02  0.59611674469E+02  0.12329555348E+03  0.79946231337E+02 0.  0.
       -6    2    1    2    0  501 -0.41218013743E+01 -0.15127484458E+02  0.37832527257E+03  0.41775885536E+03  0.17648404838E+03 0.  0.
      -24    2    5    5    0    0 -0.25059727519E+02  0.82467331259E+01  0.11448504531E+03  0.15201742780E+03  0.96470068958E+02 0.  0.
        5    1    3    3  502    0 -0.25149222240E+02 -0.51205381053E+02  0.82337766804E+02  0.10027996944E+03  0.47000000000E+01 0. -1.
        2    1    4    4  503    0  0.26510968408E+01  0.28652825133E+02  0.70280690287E+02  0.75943321825E+02  0.00000000000E+00 0. -1.
       -1    1    4    4    0  503  0.26619926773E+02  0.37680040378E+02 -0.10669015818E+02  0.47352231657E+02  0.00000000000E+00 0.  1.
       -5    1    5    5    0  501  0.20937926144E+02 -0.23374217584E+02  0.26384022727E+03  0.26574142756E+03  0.47000000000E+01 0.  1.
       11    1    6    6    0    0 -0.46272615025E+02  0.21350543965E+02  0.11634291456E+03  0.12701446531E+03  0.00000000000E+00 0. -1.
      -12    1    6    6    0    0  0.21212887507E+02 -0.13103810839E+02 -0.18578692590E+01  0.25002962486E+02  0.00000000000E+00 0.  1.
</event>
<event>
12   0  0.1523332E-01  0.1836882E+03  0.7957747E-01  0.1170025E+00
       21   -1    0    0  501  503  0.00000000000E+00  0.00000000000E+00  0.58941516898E+03  0.58941516898E+03  0.00000000000E+00 0.  1.
       21   -1    0    0  503  504  0.00000000000E+00  0.00000000000E+00 -0.93705070513E+02  0.93705070513E+02  0.00000000000E+00 0.  1.
        6    2    1    2  501    0 -0.24154515489E+02  0.57801547540E+02  0.46236567363E+03  0.49751721513E+03  0.17267571827E+03 0.  0.
       24    2    3    3    0    0  0.66199484235E+01 -0.21259386559E+02  0.32577486162E+03  0.33665442000E+03  0.81921626013E+02 0.  0.
       -6    2    1    2    0  504  0.24154515489E+02 -0.57801547540E+02  0.33344424835E+02  0.18560302436E+03  0.17149977396E+03 0.  0.
      -24    2    5    5    0    0  0.71243311541E+01  0.33281141087E+02  0.23827917330E+01  0.87793024516E+02  0.80892193757E+02 0.  0.
        5    1    3    3  501    0 -0.30774463912E+02  0.79060934100E+02  0.13659081201E+03  0.16086279513E+03  0.47000000000E+01 0. -1.
        4    1    4    4  502    0 -0.34432467959E+02 -0.25872756439E+02  0.14776469424E+03  0.15391360966E+03  0.00000000000E+00 0. -1.
       -3    1    4    4    0  502  0.41052416382E+02  0.46133698797E+01  0.17801016739E+03  0.18274081035E+03  0.00000000000E+00 0.  1.
       -5    1    5    5    0  504  0.17030184335E+02 -0.91082688627E+02  0.30961633102E+02  0.97809999848E+02  0.47000000000E+01 0.  1.
       13    1    6    6    0    0 -0.33662917517E+02  0.12546547357E+02 -0.14886866916E+02  0.38887358780E+02  0.00000000000E+00 0. -1.
      -14    1    6    6    0    0  0.40787248671E+02  0.20734593730E+02  0.17269658649E+02  0.48905665736E+02  0.00000000000E+00 0.  1.
</event>
<event>
12   0  0.1523332E-01  0.1881440E+03  0.7957747E-01  0.1166035E+00
       21   -1    0    0  504  503  0.00000000000E+00  0.00000000000E+00  0.14817190804E+03  0.14817190804E+03  0.00000000000E+00 0.  1.
       21   -1    0    0  501  504  0.00000000000E+00  0.00000000000E+00 -0.49056802863E+03  0.49056802863E+03  0.00000000000E+00 0.  1.
        6    2    1    2  501    0  0.57517789428E+02  0.46308068958E+02 -0.40067730164E+03  0.44177578309E+03  0.17079464022E+03 0.  0.
       24    2    3    3    0    0  0.13923422470E+02  0.23706575413E+02 -0.84172662017E+02  0.12145005318E+03  0.83121687761E+02 0.  0.
       -6    2    1    2    0  503 -0.57517789428E+02 -0.46308068958E+02  0.58281181047E+02  0.19696415358E+03  0.17304753214E+03 0.  0.
      -24    2    5    5    0    0 -0.98264183457E+01 -0.89895439335E+02  0.29101524876E+02  0.12591580338E+03  0.82644674843E+02 0.  0.
        5    1    3    3  501    0  0.43594366958E+02  0.22601493544E+02 -0.31650463962E+03  0.32032572991E+03  0.47000000000E+01 0. -1.
        4    1    4    4  502    0  0.38789596607E+02  0.15956083005E+02 -0.10398298594E+02  0.43212891635E+02  0.00000000000E+00 0. -1.
       -3    1    4    4    0  502 -0.24866174137E+02  0.77504924085E+01 -0.73774363423E+02  0.78237161549E+02  0.00000000000E+00 0.  1.
       -5    1    5    5    0  503 -0.47691371083E+02  0.43587370378E+02  0.29179656171E+02  0.71048350202E+02  0.47000000000E+01 0.  1.
       13    1    6    6    0    0  0.15386205632E+02  0.18027994421E+01 -0.14570001176E+02  0.21266648627E+02  0.00000000000E+00 0. -1.
      -14    1    6    6    0    0 -0.25212623978E+02 -0.91698238777E+02  0.43671526052E+02  0.10464915475E+03  0.00000000000E+00 0.  1.
</event>
<event>
12   0  0.1523332E-01  0.1830625E+03  0.7957747E-01  0.1170595E+00
       -2   -1    0    0    0  501  0.00000000000E+00  0.00000000000E+00  0.30577027662E+02  0.30577027662E+02  0.00000000000E+00 0. -1.
        2   -1    0    0  502    0  0.00000000000E+00  0.00000000000E+00 -0.11426655494E+04  0.11426655494E+04  0.00000000000E+00 0.  1.
        6    2    1    2  502    0  0.47041046653E+02  0.46760051810E+02 -0.44180388559E+03  0.47878971011E+03  0.17219044884E+03 0.  0.
       24    2    3    3    0    0  0.62591999499E+02 -0.26296382597E+02 -0.19585180266E+03  0.22170297020E+03  0.78644899708E+02 0.  0.
       -6    2    1    2    0  501 -0.47041046653E+02 -0.46760051810E+02 -0.67028463616E+03  0.69445286697E+03  0.16906782203E+03 0.  0.
      -24    2    5    5    0    0 -0.25853862802E+02 -0.91313940899E+02 -0.36239905204E+03  0.38260423589E+03  0.77757767313E+02 0.  0.
        5    1    3    3  502    0 -0.15550952846E+02  0.73056434408E+02 -0.24595208292E+03  0.25708673991E+03  0.47000000000E+01 0. -1.
        4    1    4    4  503    0  0.25073529823E+02 -0.34102296566E+02 -0.31026437826E+02  0.52481314513E+02  0.00000000000E+00 0. -1.
       -3    1    4    4    0  503  0.37518469676E+02  0.78059139686E+01 -0.16482536484E+03  0.16922165569E+03  0.00000000000E+00 0.  1.
       -5    1    5    5    0  501 -0.21187183851E+02  0.44553889089E+02 -0.30788558413E+03  0.31184863108E+03  0.47000000000E+01 0.  1.
       11    1    6    6    0    0 -0.22125013597E+02 -0.70434375591E+02 -0.13209972055E+03  0.15133028005E+03  0.00000000000E+00 0. -1.
      -12    1    6    6    0    0 -0.37288492053E+01 -0.20879565308E+02 -0.23029933149E+03  0.23127395584E+03  0.00000000000E+00 0.  1.
</event>
<event>
12   0  0.1523332E-01  0.1865414E+03  0.7957747E-01  0.1167456E+00
       21   -1    0    0  504  503  0.00000000000E+00  0.00000000000E+00  0.10557439915E+03  0.10557439915E+03  0.00000000000E+00 0.  1.
       21   -1    0    0  501  504  0.00000000000E+00  0.00000000000E+00 -0.33520516673E+03  0.33520516673E+03  0.00000000000E+00 0.  1.
        6    2    1    2  501    0  0.38851406401E+01 -0.60501928271E+02 -0.72876685023E+02  0.20027160799E+03  0.17641464821E+03 0.  0.
       24    2    3    3    0    0 -0.27879611922E+02 -0.92011200526E+02 -0.89904831460E+02  0.15216878567E+03  0.76348718588E+02 0.  0.
       -6    2    1    2    0  503 -0.38851406401E+01  0.60501928271E+02 -0.15675408256E+03  0.24050795790E+03  0.17203679191E+03 0.  0.
      -24    2    5    5    0    0 -0.26056981287E+02  0.18233069598E+02 -0.12900265711E+02  0.88869382483E+02  0.81975235204E+02 0.  0.
        5    1    3    3  501    0  0.31764752562E+02  0.31509272255E+02  0.17028146437E+02  0.48102822313E+02  0.47000000000E+01 0. -1.
      -13    1    4    4    0    0 -0.59889121322E+01 -0.70216267395E+02 -0.16281484871E+02  0.72327574444E+02  0.00000000000E+00 0.  1.
       14    1    4    4    0    0 -0.21890699790E+02 -0.21794933131E+02 -0.73623346589E+02  0.79841211229E+02  0.00000000000E+00 0. -1.
       -5    1    5    5    0  503  0.22171840647E+02  0.42268858673E+02 -0.14385381685E+03  0.15163857541E+03  0.47000000000E+01 0.  1.
        1    1    6    6  502    0 -0.30540451635E+02 -0.22344627841E+02 -0.26093347402E+02  0.45965904299E+02  0.00000000000E+00 0. -1.
       -2    1    6    6    0  502  0.44834703475E+01  0.40577697439E+02  0.13193081691E+02  0.42903478184E+02  0.00000000000E+00 0.  1.
</event>
<event>
12   0  0.1523332E-01  0.1824809E+03  0.7957747E-01  0.1171128E+00
       21   -1    0    0  501  503  0.00000000000E+00  0.00000000000E+00  0.49942672198E+03  0.49942672198E+03  0.00000000000E+00 0. -1.
       21   -1    0    0  503  504  0.00000000000E+00  0.00000000000E+00 -0.77535536991E+02  0.77535536991E+02  0.00000000000E+00 0. -1.
        6    2    1    2  501    0  0.33265344397E+02  0.44506083238E+02  0.32089194786E+03  0.36839545958E+03  0.17220974960E+03 0.  0.
       24    2    3    3    0    0 -0.44910632297E+02  0.30648170044E+02  0.13427661555E+03  0.16553862005E+03  0.80103370874E+02 0.  0.
       -6    2    1    2    0  504 -0.33265344397E+02 -0.44506083238E+02  0.10099923712E+03  0.20856679939E+03  0.17381567629E+03 0.  0.
      -24    2    5    5    0    0  0.12152022159E+02 -0.87498540564E+02  0.62247147103E+02  0.13484500442E+03  0.80652350562E+02 0.  0.
        5    1    3    3  501    0  0.78175976693E+02  0.13857913194E+02  0.18661533231E+03  0.20285683953E+03  0.47000000000E+01 0. -1.
      -13    1    4    4    0    0 -0.56604296625E+01  0.19626792526E+02 -0.44839522218E+01  0.20913088637E+02  0.00000000000E+00 0.  1.
       14    1    4    4    0    0 -0.39250202634E+02  0.11021377518E+02  0.13876056777E+03  0.14462553142E+03  0.00000000000E+00 0. -1.
       -5    1    5    5    0  504 -0.45417366556E+02  0.42992457327E+02  0.38752090021E+02  0.73721794965E+02  0.47000000000E+01 0.  1.
        1    1    6    6  502    0 -0.11934815246E+02 -0.32261380817E+02  0.66044008747E+02  0.74465076368E+02  0.00000000000E+00 0. -1.
       -2    1    6    6    0  502  0.24086837406E+02 -0.55237159747E+02 -0.37968616443E+01  0.60379928052E+02  0.00000000000E+00 0.  1.
</event>
<event>
12   0  0.1523332E-01  0.1943824E+03  0.7957747E-01  0.1160649E+00
       21   -1    0    0  504  503  0.00000000000E+00  0.00000000000E+00  0.11363821571E+03  0.11363821571E+03  0.00000000000E+00 0.  1.
       21   -1    0    0  501  504  0.00000000000E+00  0.00000000000E+00 -0.63010653896E+03  0.63010653896E+03  0.00000000000E+00 0.  1.
        6    2    1    2  501    0 -0.88555797923E+02  0.58160348384E+01 -0.51382052611E+03  0.54934430736E+03  0.17289210325E+03 0.  0.
       24    2    3    3    0    0 -0.10956776212E+03  0.43392999007E+02 -0.32197855856E+03  0.35267463153E+03  0.82590294190E+02 0.  0.
       -6    2    1    2    0  503  0.88555797923E+02 -0.58160348384E+01 -0.26477971341E+01  0.19440044731E+03  0.17294093638E+03 0.  0.
      -24    2    5    5    0    0  0.63732179574E+02 -0.70840542739E+02  0.69361656989E+01  0.12398495896E+03  0.79018899286E+02 0.  0.
        5    1    3    3  501    0  0.21011964200E+02 -0.37576964169E+02 -0.19184196756E+03  0.19666967583E+03  0.47000000000E+01 0. -1.
        4    1    4    4  502    0 -0.34737428745E+02  0.57833283524E+02 -0.14122650089E+03  0.15651294577E+03  0.00000000000E+00 0. -1.
       -3    1    4    4    0  502 -0.74830333377E+02 -0.14440284517E+02 -0.18075205767E+03  0.19616168576E+03  0.00000000000E+00 0.  1.
       -5    1    5    5    0  503  0.24823618349E+02  0.65024507901E+02 -0.95839628329E+01  0.70415488348E+02  0.47000000000E+01 0.  1.
       13    1    6    6    0    0  0.52063443683E+02 -0.10230841258E+02 -0.19916577414E+02  0.56674000537E+02  0.00000000000E+00 0. -1.
      -14    1    6    6    0    0  0.11668735891E+02 -0.60609701481E+02  0.26852743113E+02  0.67310958421E+02  0.00000000000E+00 0.  1.
</event>
<event>
12   0  0.1523332E-01  0.1921262E+03  0.7957747E-01  0.1162571E+00
       21   -1    0    0  504  503  0.00000000000E+00  0.00000000000E+00  0.25548716649E+03  0.25548716649E+03  0.00000000000E+00 0.  1.
       21   -1    0    0  501  504  0.00000000000E+00  0.00000000000E+00 -0.14746696192E+03  0.14746696192E+03  0.00000000000E+00 0.  1.
        6    2    1    2  501    0  0.65473522785E+02  0.54162530503E+02  0.24205219925E+02  0.19334157175E+03  0.17197298857E+03 0.  0.
       24    2    3    3    0    0  0.98742078909E+02  0.45456939624E+02  0.55724482736E+02  0.14645726662E+03  0.80797162461E+02 0.  0.
       -6    2    1    2    0  503 -0.65473522785E+02 -0.54162530503E+02  0.83814984652E+02  0.20961255667E+03  0.17231398772E+03 0.  0.
      -24    2    5    5    0    0  0.25556059397E+02  0.65312707398E+01  0.60803512180E+01  0.75318530082E+02  0.70286134006E+02 0.  0.
        5    1    3    3  501    0 -0.33268556124E+02  0.87055908784E+01 -0.31519262811E+02  0.46884305128E+02  0.47000000000E+01 0. -1.
        4    1    4    4  502    0  0.20696841710E+02  0.22283825186E+02  0.57475209750E+02  0.65025593865E+02  0.00000000000E+00 0. -1.
       -3    1    4    4    0  502  0.78045237199E+02  0.23173114438E+02 -0.17507270142E+01  0.81431672753E+02  0.00000000000E+00 0.  1.
       -5    1    5    5    0  503 -0.91029582181E+02 -0.60693801243E+02  0.77734633434E+02  0.13429402658E+03  0.47000000000E+01 0.  1.
       13    1    6    6    0    0  0.36919510645E+02 -0.19934183189E+02 -0.88443739904E+01  0.42879422535E+02  0.00000000000E+00 0. -1.
      -14    1    6    6    0    0 -0.11363451248E+02  0.26465453928E+02  0.14924725208E+02  0.32439107547E+02  0.00000000000E+00 0.  1.
</event>
<event>
12   0  0.1523332E-01  0.2355523E+03  0.7957747E-01  0.1129908E+00
       21   -1    0    0  504  503  0.00000000000E+00  0.00000000000E+00  0.53721395518E+03  0.53721395518E+03  0.00000000000E+00 0.  1.
       21   -1    0    0  501  504  0.00000000000E+00  0.00000000000E+00 -0.23121634605E+03  0.23121634605E+03  0.00000000000E+00 0. -1.
        6    2    1    2  501    0  0.15844476142E+03 -0.34709801921E+01 -0.13306741786E+03  0.27053990765E+03  0.17426449384E+03 0.  0.
       24    2    3    3    0    0  0.11719313769E+03  0.59918867659E+02 -0.11114218718E+03  0.19165534002E+03  0.83992150605E+02 0.  0.
       -6    2    1    2    0  503 -0.15844476142E+03  0.34709801921E+01  0.43906502699E+03  0.49789039358E+03  0.17320495366E+03 0.  0.
      -24    2    5    5    0    0 -0.14195699491E+03  0.39882041553E+02  0.42161630374E+03  0.45402514792E+03  0.81462640035E+02 0.  0.
        5    1    3    3  501    0  0.41251623725E+02 -0.63389847851E+02 -0.21925230684E+02  0.78884567636E+02  0.47000000000E+01 0. -1.
      -11    1    4    4    0    0  0.89310453026E+02  0.57595840726E+02 -0.12186358718E+03  0.16169221308E+03  0.00000000000E+00 0.  1.
       12    1    4    4    0    0  0.27882684664E+02  0.23230269324E+01  0.10721400002E+02  0.29963126942E+02  0.00000000000E+00 0. -1.
       -5    1    5    5    0  503 -0.16487766506E+02 -0.36411061361E+02  0.17448723246E+02  0.43865245659E+02  0.47000000000E+01 0.  1.
        1    1    6    6  502    0 -0.50985732304E+02  0.56241958600E+02  0.18176213414E+03  0.19697760333E+03  0.00000000000E+00 0. -1.
       -2    1    6    6    0  502 -0.90971262605E+02 -0.16359917047E+02  0.23985416960E+03  0.25704754459E+03  0.00000000000E+00 0.  1.
</event>
<event>
12   0  0.1523332E-01  0.1769706E+03  0.7957747E-01  0.1176282E+00
       21   -1    0    0  504  503  0.00000000000E+00  0.00000000000E+00  0.24122095386E+03  0.24122095386E+03  0.00000000000E+00 0. -1.
       21   -1    0    0  501  504  0.00000000000E+00  0.00000000000E+00 -0.18440166261E+03  0.18440166261E+03  0.00000000000E+00 0. -1.
        6    2    1    2  501    0  0.18642970288E+02  0.31179056742E+02 -0.88147795673E+02  0.19685628038E+03  0.17222853226E+03 0.  0.
       24    2    3    3    0    0  0.75100397501E+02 -0.33372706625E+01 -0.55908335358E+02  0.12309795376E+03  0.79850843303E+02 0.  0.
       -6    2    1    2    0  503 -0.18642970288E+02 -0.31179056742E+02  0.14496708692E+03  0.22876633609E+03  0.17320186580E+03 0.  0.
      -24    2    5    5    0    0 -0.37723590242E+02 -0.20519330644E+02  0.16876301219E+03  0.19611613123E+03  0.90202386069E+02 0.  0.
        5    1    3    3  501    0 -0.56457427214E+02  0.34516327405E+02 -0.32239460315E+02  0.73758326625E+02  0.47000000000E+01 0. -1.
      -11    1    4    4    0    0  0.25495884092E+02 -0.24649335525E+02  0.10994414778E+02  0.37128250751E+02  0.00000000000E+00 0.  1.
       12    1    4    4    0    0  0.49604513409E+02  0.21312064863E+02 -0.66902750135E+02  0.85969703006E+02  0.00000000000E+00 0. -1.
       -5    1    5    5    0  503  0.19080619954E+02 -0.10659726098E+02 -0.23795925269E+02  0.32650204865E+02  0.47000000000E+01 0.  1.
        1    1    6    6  502    0  0.16931214594E+02 -0.36167505171E+02  0.94494068487E+02  0.10258598070E+03  0.00000000000E+00 0. -1.
       -2    1    6    6    0  502 -0.54654804836E+02  0.15648174527E+02  0.74268943704E+02  0.93530150522E+02  0.00000000000E+00 0.  1.
</event>
<event>
12   0  0.1523332E-01  0.1807426E+03  0.7957747E-01  0.1172732E+00
       21   -1    0    0  504  503  0.00000000000E+00  0.00000000000E+00  0.36507697965E+03  0.36507697965E+03  0.00000000000E+00 0.  1.
       21   -1    0    0  501  504  0.00000000000E+00  0.00000000000E+00 -0.37683608535E+03  0.37683608535E+03  0.00000000000E+00 0.  1.
        6    2    1    2  501    0  0.50858144577E+02  0.13361378887E+02 -0.32987615467E+03  0.37614645439E+03  0.17292426207E+03 0.  0.
       24    2    3    3    0    0  0.97029602483E+02  0.69801893215E+01 -0.28547357200E+03  0.31160032784E+03  0.78333499816E+02 0.  0.
       -6    2    1    2    0  503 -0.50858144577E+02 -0.13361378887E+02  0.31811704897E+03  0.36576661062E+03  0.17268954595E+03 0.  0.
      -24    2    5    5    0    0 -0.53935338942E+02  0.36284537385E+02  0.29059362884E+03  0.30872439131E+03  0.81489289042E+02 0.  0.
        5    1    3    3  501    0 -0.46171457907E+02  0.63811895653E+01 -0.44402582662E+02  0.64546126550E+02  0.47000000000E+01 0. -1.
        4    1    4    4  502    0  0.37663325098E+02 -0.15562761177E+02 -0.20539618235E+03  0.20939989809E+03  0.00000000000E+00 0. -1.
       -3    1    4    4    0  502  0.59366277385E+02  0.22542950499E+02 -0.80077389650E+02  0.10220042975E+03  0.00000000000E+00 0.  1.
       -5    1    5    5    0  503  0.30771943657E+01 -0.49645916272E+02  0.27523420133E+02  0.57042219307E+02  0.47000000000E+01 0.  1.
       11    1    6    6    0    0 -0.29009831840E+02  0.26551989796E+02  0.37895914490E+02  0.54613907025E+02  0.00000000000E+00 0. -1.
      -12    1    6    6    0    0 -0.24925507103E+02  0.97325475888E+01  0.25269771435E+03  0.25411048429E+03  0.00000000000E+00 0.  1.
</event>
<event>
12   0  0.1523332E-01  0.1768561E+03  0.7957747E-01  0.1176391E+00
       21   -1    0    0  501  503  0.00000000000E+00  0.00000000000E+00  0.11659356692E+03  0.11659356692E+03  0.00000000000E+00 0.  1.
       21   -1    0    0  503  504  0.00000000000E+00  0.00000000000E+00 -0.26890889517E+03  0.26890889517E+03  0.00000000000E+00 0.  1.
        6    2    1    2  501    0  0.22691225332E+02  0.27402964627E+02 -0.65005813773E+02  0.18826900926E+03  0.17307122767E+03 0.  0.
       24    2    3    3    0    0  0.10812743837E+02  0.56994356149E+02  0.17975415287E+02  0.99248095138E+02  0.78497113142E+02 0.  0.
       -6    2    1    2    0  504 -0.22691225332E+02 -0.27402964627E+02 -0.87309514479E+02  0.19723345284E+03  0.17324049591E+03 0.  0.
      -24    2    5    5    0    0 -0.15490010095E+02  0.31618192793E+02  0.55638136166E+01  0.86857279704E+02  0.79205937198E+02 0.  0.
        5    1    3    3  501    0  0.11878481495E+02 -0.29591391522E+02 -0.82981229060E+02  0.89020914122E+02  0.47000000000E+01 0. -1.
      -13    1    4    4    0    0  0.19794604635E+02 -0.12325877587E+02  0.17820334728E+02  0.29348219039E+02  0.00000000000E+00 0.  1.
       14    1    4    4    0    0 -0.89818607976E+01  0.69320233736E+02  0.15508055854E+00  0.69899876099E+02  0.00000000000E+00 0. -1.
       -5    1    5    5    0  504 -0.72012152371E+01 -0.59021157420E+02 -0.92873328095E+02  0.11037617313E+03  0.47000000000E+01 0.  1.
        3    1    6    6  502    0  0.94697648223E+01  0.48730407638E+02 -0.13049825220E+02  0.51328617872E+02  0.00000000000E+00 0. -1.
       -4    1    6    6    0  502 -0.24959774917E+02 -0.17112214846E+02  0.18613638836E+02  0.35528661832E+02  0.00000000000E+00 0.  1.
</event>
<event>
12   0  0.1523332E-01  0.1906198E+03  0.7957747E-01  0.1163870E+00
        3   -1    0    0  502    0  0.00000000000E+00  0.00000000000E+00  0.54371477407E+03  0.54371477407E+03  0.00000000000E+00 0. -1.
       -3   -1    0    0    0  501  0.00000000000E+00  0.00000000000E+00 -0.34519204327E+03  0.34519204327E+03  0.00000000000E+00 0.  1.
        6    2    1    2  502    0 -0.47827875264E+01 -0.79661696265E+02 -0.29993384409E+03  0.35496633566E+03  0.17225541417E+03 0.  0.
       24    2    3    3    0    0  0.34323369695E+02 -0.68836046262E+02 -0.29336983586E+03  0.31359409334E+03  0.79742710085E+02 0.  0.
       -6    2    1    2    0  501  0.47827875264E+01  0.79661696265E+02  0.49845657488E+03  0.53394048168E+03  0.17396729586E+03 0.  0.
      -24    2    5    5    0    0  0.35483840680E+02 -0.17392632073E+02  0.22565478603E+03  0.24272749551E+03  0.80218127749E+02 0.  0.
        5    1    3    3  502    0 -0.39106157222E+02 -0.10825650003E+02 -0.65640082299E+01  0.41372242321E+02  0.47000000000E+01 0. -1.
      -11    1    4    4    0    0  0.35318687723E+02 -0.86327810003E+02 -0.24747817463E+03  0.26447182723E+03  0.00000000000E+00 0.  1.
       12    1    4    4    0    0 -0.99531802729E+00  0.17491763741E+02 -0.45891661230E+02  0.49122266104E+02  0.00000000000E+00 0. -1.
       -5    1    5    5    0  501 -0.30701053153E+02  0.97054328339E+02  0.27280178885E+03  0.29121298617E+03  0.47000000000E+01 0.  1.
        1    1    6    6  503    0  0.58848693378E+02  0.20348725521E+01  0.14199478296E+03  0.15371996554E+03  0.00000000000E+00 0. -1.
       -2    1    6    6    0  503 -0.23364852698E+02 -0.19427504625E+02  0.83660003071E+02  0.89007529971E+02  0.00000000000E+00 0.  1.
</event>
<event>
12   0  0.1523332E-01  0.1904837E+03  0.7957747E-01  0.1163988E+00
       -1   -1    0    0    0  501  0.00000000000E+00  0.00000000000E+00  0.14724096302E+03  0.14724096302E+03  0.00000000000E+00 0. -1.
        1   -1    0    0  502    0  0.00000000000E+00  0.00000000000E+00 -0.28105211348E+03  0.28105211348E+03  0.00000000000E+00 0.  1.
        6    2    1    2  502    0 -0.27289225563E+02  0.70556924299E+02 -0.14143378843E+03  0.23568365158E+03  0.17268551101E+03 0.  0.
       24    2    3    3    0    0 -0.37251197012E+01  0.76328789569E+02 -0.16699877627E+03  0.20012749716E+03  0.79513918344E+02 0.  0.
       -6    2    1    2    0  501  0.27289225563E+02 -0.70556924299E+02  0.76226379721E+01  0.19260942492E+03  0.17696695895E+03 0.  0.
      -24    2    5    5    0    0 -0.37284756149E+02 -0.12526144247E+02  0.41134041289E+02  0.99429627214E+02  0.81530264837E+02 0.  0.
        5    1    3    3  502    0 -0.23564105862E+02 -0.57718652705E+01  0.25564987837E+02  0.35556154416E+02  0.47000000000E+01 0. -1.
      -11    1    4    4    0    0  0.28887966298E+01  0.76385968451E+02 -0.72358630403E+02  0.10525650914E+03  0.00000000000E+00 0.  1.
       12    1    4    4    0    0 -0.66139163310E+01 -0.57178881788E-01 -0.94640145869E+02  0.94870988024E+02  0.00000000000E+00 0. -1.
       -5    1    5    5    0  501  0.64573981712E+02 -0.58030780052E+02 -0.33511403317E+02  0.93179797702E+02  0.47000000000E+01 0.  1.
        1    1    6    6  503    0  0.24637211773E+02  0.23679080465E+01  0.21497136286E+02  0.32783014824E+02  0.00000000000E+00 0. -1.
       -2    1    6    6    0  503 -0.61921967921E+02 -0.14894052293E+02  0.19636905003E+02  0.66646612390E+02  0.00000000000E+00 0.  1.
</event>
<event>
12   0  0.1523332E-01  0.2067457E+03  0.7957747E-01  0.1150601E+00
       21   -1    0    0  501  503  0.00000000000E+00  0.00000000000E+00  0.15252400270E+03  0.15252400270E+03  0.00000000000E+00 0. -1.
       21   -1    0    0  503  504  0.00000000000E+00  0.00000000000E+00 -0.29440756575E+03  0.29440756575E+03  0.00000000000E+00 0.  1.
        6    2    1    2  501    0  0.31774828594E+02 -0.11014601732E+03 -0.14121109777E+02  0.20722738518E+03  0.17205231345E+03 0.  0.
       24    2    3    3    0    0  0.50416067027E+02 -0.76180324677E+01  0.15077795181E+01  0.10174830845E+03  0.88037666029E+02 0.  0.
       -6    2    1    2    0  504 -0.31774828594E+02  0.11014601732E+03 -0.12776245327E+03  0.23970418326E+03  0.16731128517E+03 0.  0.
      -24    2    5    5    0    0  0.28314627254E+02  0.16322132417E+02 -0.30773334130E+02  0.91911614728E+02  0.80203595339E+02 0.  0.
        5    1    3    3  501    0 -0.18641238432E+02 -0.10252798485E+03 -0.15628889296E+02  0.10547907673E+03  0.47000000000E+01 0. -1.
      -13    1    4    4    0    0  0.27254348903E+02 -0.56722255686E+01 -0.43180733274E+02  0.51376545262E+02  0.00000000000E+00 0.  1.
       14    1    4    4    0    0  0.23161718124E+02 -0.19458068991E+01  0.44688512792E+02  0.50371763186E+02  0.00000000000E+00 0. -1.
       -5    1    5    5    0  504 -0.60089455849E+02  0.93823884901E+02 -0.96989119143E+02  0.14779256854E+03  0.47000000000E+01 0.  1.
        3    1    6    6  502    0 -0.53217757256E+01 -0.21158372767E+02 -0.35139965521E+02  0.41362002029E+02  0.00000000000E+00 0. -1.
       -4    1    6    6    0  502  0.33636402980E+02  0.37480505184E+02  0.43666313913E+01  0.50549612699E+02  0.00000000000E+00 0.  1.
</event>
<event>
12   0  0.1523332E-01  0.1749086E+03  0.7957747E-01  0.1178264E+00
       21   -1    0    0  501  503  0.00000000000E+00  0.00000000000E+00  0.63333473194E+03  0.63333473194E+03  0.00000000000E+00 0. -1.
       21   -1    0    0  503  504  0.00000000000E+00  0.00000000000E+00 -0.50093289601E+02  0.50093289601E+02  0.00000000000E+00 0. -1.
        6    2    1    2  501    0  0.19724901442E+02  0.11205762072E+02  0.35673696312E+03  0.39730881562E+03  0.17343123498E+03 0.  0.
       24    2    3    3    0    0  0.49016513944E+02 -0.50466386147E+02  0.21155380799E+03  0.23680432670E+03  0.79823559789E+02 0.  0.
       -6    2    1    2    0  504 -0.19724901442E+02 -0.11205762072E+02  0.22650447921E+03  0.28611920592E+03  0.17333574373E+03 0.  0.
      -24    2    5    5    0    0 -0.40671656235E+02  0.53445893465E+02  0.10640833004E+03  0.14804756457E+03  0.78004496815E+02 0.  0.
        5    1    3    3  501    0 -0.29291612502E+02  0.61672148219E+02  0.14518315513E+03  0.16050448892E+03  0.47000000000E+01 0. -1.
      -11    1    4    4    0    0  0.43203185289E+02 -0.18969988161E+02  0.38748336566E+02  0.61055788068E+02  0.00000000000E+00 0.  1.
       12    1    4    4    0    0  0.58133286549E+01 -0.31496397986E+02  0.17280547143E+03  0.17574853863E+03  0.00000000000E+00 0. -1.
       -5    1    5    5    0  504  0.20946754793E+02 -0.64651655537E+02  0.12009614918E+03  0.13807164136E+03  0.47000000000E+01 0.  1.
        1    1    6    6  502    0  0.19395506230E+02  0.74733881189E+01  0.48560655947E+02  0.52822102361E+02  0.00000000000E+00 0. -1.
       -2    1    6    6    0  502 -0.60067162465E+02  0.45972505346E+02  0.57847674091E+02  0.95225462205E+02  0.00000000000E+00 0.  1.
</event>
<event>
12   0  0.1523332E-01  0.1792845E+03  0.7957747E-01  0.1174093E+00
       -1   -1    0    0    0  501  0.00000000000E+00  0.00000000000E+00  0.10411799747E+03  0.10411799747E+03  0.00000000000E+00 0.  1.
        1   -1    0    0  502    0  0.00000000000E+00  0.00000000000E+00 -0.34909476530E+03  0.34909476530E+03  0.00000000000E+00 0. -1.
        6    2    1    2  502    0  0.45600382169E+02  0.20722655132E+02 -0.19886307162E+03  0.26699817949E+03  0.17097568045E+03 0.  0.
       24    2    3    3    0    0 -0.13644872560E+02  0.64906457133E+02 -0.11024997574E+03  0.15151407093E+03  0.80015159907E+02 0.  0.
       -6    2    1    2    0  501 -0.45600382169E+02 -0.20722655132E+02 -0.46113696213E+02  0.18621458328E+03  0.17332217042E+03 0.  0.
      -24    2    5    5    0    0 -0.62733614745E+02  0.12998012339E+02 -0.81736035989E+02  0.13404493536E+03  0.84751462358E+02 0.  0.
        5    1    3    3  502    0  0.59245254729E+02 -0.44183802001E+02 -0.88613095885E+02  0.11548410856E+03  0.47000000000E+01 0. -1.
      -11    1    4    4    0    0 -0.22911276798E+02  0.75461436187E+01  0.29215179648E+01  0.24298274738E+02  0.00000000000E+00 0.  1.
       12    1    4    4    0    0  0.92664042373E+01  0.57360313515E+02 -0.11317149370E+03  0.12721579619E+03  0.00000000000E+00 0. -1.
       -5    1    5    5    0  501  0.17133232577E+02 -0.33720667471E+02  0.35622339776E+02  0.52169647922E+02  0.47000000000E+01 0.  1.
        1    1    6    6  503    0  0.10885375939E+02  0.27786205674E+02 -0.33169303318E+02  0.44618015618E+02  0.00000000000E+00 0. -1.
       -2    1    6    6    0  503 -0.73618990684E+02 -0.14788193335E+02 -0.48566732671E+02  0.89426919738E+02  0.00000000000E+00 0.  1.
</event>
<event>
12   0  0.1523332E-01  0.2215610E+03  0.7957747E-01  0.1139529E+00
       -2   -1    0    0    0  501  0.00000000000E+00  0.00000000000E+00  0.13112005952E+03  0.13112005952E+03  0.00000000000E+00 0.  1.
        2   -1    0    0  502    0  0.00000000000E+00  0.00000000000E+00 -0.38164169254E+03  0.38164169254E+03  0.00000000000E+00 0. -1.
        6    2    1    2  502    0  0.12735372060E+03 -0.56526664988E+02 -0.15980508647E+03  0.27205203882E+03  0.17047114758E+03 0.  0.
       24    2    3    3    0    0  0.15775031535E+03 -0.32424149237E+02 -0.11961677042E+03  0.21599782412E+03  0.80064978686E+02 0.  0.
       -6    2    1    2    0  501 -0.12735372060E+03  0.56526664988E+02 -0.90716546554E+02  0.24070971324E+03  0.17406159894E+03 0.  0.
      -24    2    5    5    0    0 -0.29117685282E+02  0.67611067344E+01  0.12295542349E+02  0.89843846054E+02  0.83828301615E+02 0.  0.
        5    1    3    3  502    0 -0.30396594755E+02 -0.24102515751E+02 -0.40188316052E+02  0.56054214698E+02  0.47000000000E+01 0. -1.
      -11    1    4    4    0    0  0.41955987014E+02  0.23875857670E+02 -0.16420012958E+02  0.50989981873E+02  0.00000000000E+00 0.  1.
       12    1    4    4    0    0  0.11579432834E+03 -0.56300006907E+02 -0.10319675746E+03  0.16500784225E+03  0.00000000000E+00 0. -1.
       -5    1    5    5    0  501 -0.98236035315E+02  0.49765558254E+02 -0.10301208890E+03  0.15086586719E+03  0.47000000000E+01 0.  1.
        3    1    6    6  503    0 -0.27820318230E+02 -0.33412351019E+02 -0.89352581207E+01  0.44386869057E+02  0.00000000000E+00 0. -1.
       -4    1    6    6    0  503 -0.12973670517E+01  0.40173457753E+02  0.21230800470E+02  0.45456976997E+02  0.00000000000E+00 0.  1.
</event>
<event>
12   0  0.1523332E-01  0.1911277E+03  0.7957747E-01  0.1163431E+00
       21   -1    0    0  504  503  0.00000000000E+00  0.00000000000E+00  0.69473167463E+02  0.69473167463E+02  0.00000000000E+00 0.  1.
       21   -1    0    0  501  504  0.00000000000E+00  0.00000000000E+00 -0.56402860211E+03  0.56402860211E+03  0.00000000000E+00 0. -1.
        6    2    1    2  501    0 -0.13686898029E+02 -0.79726267249E+02 -0.16280070866E+03  0.25062974850E+03  0.17253286999E+03 0.  0.
       24    2    3    3    0    0  0.25086333320E+02 -0.39551346786E+02 -0.16234037351E+02  0.93718095519E+02  0.79535553730E+02 0.  0.
       -6    2    1    2    0  503  0.13686898029E+02  0.79726267249E+02 -0.33175472599E+03  0.38287202107E+03  0.17316517386E+03 0.  0.
      -24    2    5    5    0    0 -0.25681002329E+02  0.36112188552E+02 -0.68515381710E+02  0.11311460817E+03  0.78338706959E+02 0.  0.
        5    1    3    3  501    0 -0.38773231349E+02 -0.40174920463E+02 -0.14656667131E+03  0.15691165298E+03  0.47000000000E+01 0. -1.
        2    1    4    4  502    0 -0.15211358824E+02  0.16601403718E+02  0.81155777551E+00  0.22531104471E+02  0.00000000000E+00 0. -1.
       -1    1    4    4    0  502  0.40297692144E+02 -0.56152750503E+02 -0.17045595127E+02  0.71186991048E+02  0.00000000000E+00 0.  1.
       -5    1    5    5    0  503  0.39367900358E+02  0.43614078697E+02 -0.26323934428E+03  0.26975741290E+03  0.47000000000E+01 0.  1.
       13    1    6    6    0    0  0.12683651242E+02  0.57740375786E+01 -0.62265818966E+02  0.63806322025E+02  0.00000000000E+00 0. -1.
      -14    1    6    6    0    0 -0.38364653571E+02  0.30338150973E+02 -0.62495627440E+01  0.49308286145E+02  0.00000000000E+00 0.  1.
</event>
<event>
12   0  0.1523332E-01  0.1824933E+03  0.7957747E-01  0.1171116E+00
       21   -1    0    0  501  503  0.00000000000E+00  0.00000000000E+00  0.11296325497E+03  0.11296325497E+03  0.00000000000E+00 0.  1.
       21   -1    0    0  503  504  0.00000000000E+00  0.00000000000E+00 -0.41169253134E+03  0.41169253134E+03  0.00000000000E+00 0.  1.
        6    2    1    2  501    0 -0.42230157200E+02  0.11943623355E+02 -0.46535862261E+01  0.17855705611E+03  0.17301713819E+03 0.  0.
       24    2    3    3    0    0  0.27947750372E+02 -0.28687178322E+02  0.22779878055E+02  0.92822082395E+02  0.80579061704E+02 0.  0.
       -6    2    1    2    0  504  0.42230157200E+02 -0.11943623355E+02 -0.29407569015E+03  0.34609873019E+03  0.17713775202E+03 0.  0.
      -24    2    5    5    0    0 -0.40349067680E+02 -0.36257917511E+02 -0.15201335335E+03  0.17992318801E+03  0.79508553905E+02 0.  0.
        5    1    3    3  501    0 -0.70177907571E+02  0.40630801677E+02 -0.27433464281E+02  0.85734973718E+02  0.47000000000E+01 0. -1.
        4    1    4    4  502    0 -0.26510525031E+02 -0.75827660961E+01 -0.52024226526E+01  0.28060140422E+02  0.00000000000E+00 0. -1.
       -3    1    4    4    0  502  0.54458275402E+02 -0.21104412226E+02  0.27982300707E+02  0.64761941973E+02  0.00000000000E+00 0.  1.
       -5    1    5    5    0  504  0.82579224880E+02  0.24314294156E+02 -0.14206233680E+03  0.16617554218E+03  0.47000000000E+01 0.  1.
       13    1    6    6    0    0 -0.15837392065E+02  0.24931429457E+02 -0.36810834975E+02  0.47195727918E+02  0.00000000000E+00 0. -1.
      -14    1    6    6    0    0 -0.24511675616E+02 -0.61189346969E+02 -0.11520251837E+03  0.13272746010E+03  0.00000000000E+00 0.  1.
</event>
<event>
12   0  0.1523332E-01  0.2098193E+03  0.7957747E-01  0.1148222E+00
        1   -1    0    0  502    0  0.00000000000E+00  0.00000000000E+00  0.27312035075E+03  0.27312035075E+03  0.00000000000E+00 0.  1.
       -1   -1    0    0    0  501  0.00000000000E+00  0.00000000000E+00 -0.59281188217E+03  0.59281188217E+03  0.00000000000E+00 0. -1.
        6    2    1    2  502    0 -0.11143685551E+03 -0.47941793395E+02  0.20983449588E+03  0.29592108414E+03  0.16977097531E+03 0.  0.
       24    2    3    3    0    0 -0.11997376226E+03  0.29065986444E+01  0.10733128053E+03  0.18108451807E+03  0.82882126899E+02 0.  0.
       -6    2    1    2    0  501  0.11143685551E+03  0.47941793395E+02 -0.52952602730E+03  0.57001114877E+03  0.17262186365E+03 0.  0.
      -24    2    5    5    0    0  0.14657895306E+03  0.29748271146E+02 -0.39620526920E+03  0.43086199924E+03  0.79329048493E+02 0.  0.
        5    1    3    3  502    0  0.85369067433E+01 -0.50848392039E+02  0.10250321535E+03  0.11483656607E+03  0.47000000000E+01 0. -1.
      -11    1    4    4    0    0 -0.10163300944E+03 -0.61263417076E+01  0.11973407809E+03  0.15717203990E+03  0.00000000000E+00 0.  1.
       12    1    4    4    0    0 -0.18340752810E+02  0.90329403520E+01 -0.12402797555E+02  0.23912478170E+02  0.00000000000E+00 0. -1.
       -5    1    5    5    0  501 -0.35142097552E+02  0.18193522249E+02 -0.13332075811E+03  0.13914914953E+03  0.47000000000E+01 0.  1.
        1    1    6    6  503    0  0.51120527863E+02 -0.27226949912E+02 -0.14617795367E+03  0.15723424980E+03  0.00000000000E+00 0. -1.
       -2    1    6    6    0  503  0.95458425201E+02  0.56975221059E+02 -0.25002731553E+03  0.27362774944E+03  0.00000000000E+00 0.  1.
</event>
<event>
12   0  0.1523332E-01  0.1978062E+03  0.7957747E-01  0.1157786E+00
       21   -1    0    0  501  503  0.00000000000E+00  0.00000000000E+00  0.11500679158E+03  0.11500679158E+03  0.00000000000E+00 0. -1.
       21   -1    0    0  503  504  0.00000000000E+00  0.00000000000E+00 -0.34082221814E+03  0.34082221814E+03  0.00000000000E+00 0.  1.
        6    2    1    2  501    0  0.94238014512E+02 -0.52191447290E+01 -0.86681247898E+02  0.21596511732E+03  0.17383684969E+03 0.  0.
       24    2    3    3    0    0  0.68622045031E+02  0.65472748692E+02 -0.59770383772E+02  0.13596632798E+03  0.76932942759E+02 0.  0.
       -6    2    1    2    0  504 -0.94238014512E+02  0.52191447290E+01 -0.13913417866E+03  0.23986389240E+03  0.17107987712E+03 0.  0.
      -24    2    5    5    0    0 -0.42699713821E+02 -0.57451143160E+02 -0.46697188845E+02  0.11677673422E+03  0.79575616863E+02 0.  0.
        5    1    3    3  501    0  0.25615969481E+02 -0.70691893421E+02 -0.26910864126E+02  0.79998789340E+02  0.47000000000E+01 0. -1.
      -11    1    4    4    0    0  0.72601519665E+02  0.27794017459E+02 -0.59798078766E+02  0.98078021433E+02  0.00000000000E+00 0.  1.
       12    1    4    4    0    0 -0.39794746335E+01  0.37678731233E+02  0.27694993689E-01  0.37888306543E+02  0.00000000000E+00 0. -1.
       -5    1    5    5    0  504 -0.51538300691E+02  0.62670287889E+02 -0.92436989815E+02  0.12308715818E+03  0.47000000000E+01 0.  1.
        1    1    6    6  502    0 -0.32374544223E+02 -0.35146119775E+01  0.13537164370E+02  0.35266392362E+02  0.00000000000E+00 0. -1.
       -2    1    6    6    0  502 -0.10325169598E+02 -0.53936531183E+02 -0.60234353215E+02  0.81510341862E+02  0.00000000000E+00 0.  1.
</event>
<event>
12   0  0.1523332E-01  0.1840865E+03  0.7957747E-01  0.1169663E+00
       21   -1    0    0  501  503  0.00000000000E+00  0.00000000000E+00  0.97533936389E+03  0.97533936389E+03  0.00000000000E+00 0.  1.
       21   -1    0    0  503  504  0.00000000000E+00  0.00000000000E+00 -0.34993912157E+02  0.34993912157E+02  0.00000000000E+00 0. -1.
        6    2    1    2  501    0  0.59374104998E+02 -0.19443633593E+02  0.42705031590E+03  0.46502626534E+03  0.17313034371E+03 0.  0.
       24    2    3    3    0    0  0.12385273348E+02 -0.65664227980E+02  0.17044427484E+03  0.20004882488E+03  0.80641773768E+02 0.  0.
       -6    2    1    2    0  504 -0.59374104998E+02  0.19443633593E+02  0.51329513584E+03  0.54530701071E+03  0.17316033098E+03 0.  0.
      -24    2    5    5    0    0 -0.67778278765E+02  0.52068698932E+02  0.21007225229E+03  0.24018206559E+03  0.79069772805E+02 0.  0.
        5    1    3    3  501    0  0.46988831649E+02  0.46220594388E+02  0.25660604106E+03  0.26497744046E+03  0.47000000000E+01 0. -1.
        2    1    4    4  502    0 -0.22414462431E+02 -0.76897838163E+01  0.95959727253E+01  0.25566063321E+02  0.00000000000E+00 0. -1.
       -1    1    4    4    0  502  0.34799735780E+02 -0.57974444164E+02  0.16084830212E+03  0.17448276156E+03  0.00000000000E+00 0.  1.
       -5    1    5    5    0  504  0.84041737677E+01 -0.32625065339E+02  0.30322288355E+03  0.30512494512E+03  0.47000000000E+01 0.  1.
       11    1    6    6    0    0  0.84300093726E+01 -0.12724112580E+01 -0.18669583776E+01  0.87275209547E+01  0.00000000000E+00 0. -1.
      -12    1    6    6    0    0 -0.76208288138E+02  0.53341110190E+02  0.21193921066E+03  0.23145454464E+03  0.00000000000E+00 0.  1.
</event>
<event>
12   0  0.1523332E-01  0.2136864E+03  0.7957747E-01  0.1145291E+00
       21   -1    0    0  504  503  0.00000000000E+00  0.00000000000E+00  0.19936613094E+03  0.19936613094E+03  0.00000000000E+00 0.  1.
       21   -1    0    0  501  504  0.00000000000E+00  0.00000000000E+00 -0.25937159229E+03  0.25937159229E+03  0.00000000000E+00 0.  1.
        6    2    1    2  501    0 -0.87828768889E+02  0.89869869585E+02  0.48821252833E+02  0.21919257765E+03  0.17283340321E+03 0.  0.
       24    2    3    3    0    0 -0.10228986075E+03  0.12079127436E+03  0.49617798348E+02  0.18472547832E+03  0.81288553019E+02 0.  0.
       -6    2    1    2    0  503  0.87828768889E+02 -0.89869869585E+02 -0.10882671418E+03  0.23954514558E+03  0.17247648231E+03 0.  0.
      -24    2    5    5    0    0 -0.83655693144E+01 -0.97382289231E+01 -0.10032337787E+02  0.79993118505E+02  0.78316252171E+02 0.  0.
        5    1    3    3  501    0  0.14461091865E+02 -0.30921404780E+02 -0.79654551565E+00  0.34467099330E+02  0.47000000000E+01 0. -1.
        4    1    4    4  502    0 -0.46301528062E+02  0.10414182116E+03  0.10560493407E+02  0.11445905135E+03  0.00000000000E+00 0. -1.
       -3    1    4    4    0  502 -0.55988332692E+02  0.16649453205E+02  0.39057304941E+02  0.70266426968E+02  0.00000000000E+00 0.  1.
       -5    1    5    5    0  503  0.96194338204E+02 -0.80131640662E+02 -0.98794376397E+02  0.15955202708E+03  0.47000000000E+01 0.  1.
       13    1    6    6    0    0  0.90645175443E+01  0.29151181629E+02  0.11025036755E+02  0.32457792656E+02  0.00000000000E+00 0. -1.
      -14    1    6    6    0    0 -0.17430086859E+02 -0.38889410552E+02 -0.21057374542E+02  0.47535325849E+02  0.00000000000E+00 0.  1.
</event>
<event>
12   0  0.1523332E-01  0.1919787E+03  0.7957747E-01  0.1162697E+00
       21   -1    0    0  504  503  0.00000000000E+00  0.00000000000E+00  0.22353580920E+03  0.22353580920E+03  0.00000000000E+00 0. -1.
       21   -1    0    0  501  504  0.00000000000E+00  0.00000000000E+00 -0.16999793896E+03  0.16999793896E+03  0.00000000000E+00 0. -1.
        6    2    1    2  501    0 -0.60970687065E+02  0.46003730003E+02 -0.13481918737E+02  0.19019296178E+03  0.17366010688E+03 0.  0.
       24    2    3    3    0    0  0.92766641286E+01  0.23863990956E+02  0.45628889897E+02  0.95635909731E+02  0.80054263316E+02 0.  0.
       -6    2    1    2    0  503  0.60970687065E+02 -0.46003730003E+02  0.67019788982E+02  0.20334078638E+03  0.17613079071E+03 0.  0.
      -24    2    5    5    0    0  0.96945506530E+02  0.81135795664E+01  0.73436381601E+02  0.13787221766E+03  0.64432793271E+02 0.  0.
        5    1    3    3  501    0 -0.70247351193E+02  0.22139739047E+02 -0.59110808634E+02  0.94557052048E+02  0.47000000000E+01 0. -1.
      -13    1    4    4    0    0  0.41416312235E+02  0.69599018549E+01  0.69264053607E+01  0.42564377644E+02  0.00000000000E+00 0.  1.
       14    1    4    4    0    0 -0.32139648107E+02  0.16904089101E+02  0.38702484536E+02  0.53071532087E+02  0.00000000000E+00 0. -1.
       -5    1    5    5    0  503 -0.35974819465E+02 -0.54117309569E+02 -0.64165926190E+01  0.65468568729E+02  0.47000000000E+01 0.  1.
        3    1    6    6  502    0  0.91128480259E+02  0.27830529923E+02  0.66427328969E+02  0.11615303846E+03  0.00000000000E+00 0. -1.
       -4    1    6    6    0  502  0.58170262711E+01 -0.19716950357E+02  0.70090526327E+01  0.21719179193E+02  0.00000000000E+00 0.  1.
</event>
<event>
12   0  0.1523332E-01  0.2003106E+03  0.7957747E-01  0.1155731E+00
       21   -1    0    0  501  503  0.00000000000E+00  0.00000000000E+00  0.28172426431E+03  0.28172426431E+03  0.00000000000E+00 0.  1.
       21   -1    0    0  503  504  0.00000000000E+00  0.00000000000E+00 -0.27810479838E+03  0.27810479838E+03  0.00000000000E+00 0.  1.
        6    2    1    2  501    0 -0.57990894499E+02 -0.60019632554E+02  0.20106227833E+03  0.27856762323E+03  0.17380615872E+03 0.  0.
       24    2    3    3    0    0 -0.70656143606E+02 -0.10027123097E+03  0.17821966015E+03  0.23035481461E+03  0.79085289164E+02 0.  0.
       -6    2    1    2    0  504  0.57990894499E+02  0.60019632554E+02 -0.19744281240E+03  0.28126143946E+03  0.18209621913E+03 0.  0.
      -24    2    5    5    0    0 -0.24172082549E+02  0.63991700391E+02 -0.60792713239E+02  0.12169367416E+03  0.80214518979E+02 0.  0.
        5    1    3    3  501    0  0.12665249107E+02  0.40251598414E+02  0.22842618184E+02  0.48212808624E+02  0.47000000000E+01 0. -1.
        4    1    4    4  502    0 -0.53733449015E+02 -0.11166324260E+03  0.16370816331E+03  0.20532005754E+03  0.00000000000E+00 0. -1.
       -3    1    4    4    0  502 -0.16922694592E+02  0.11392011636E+02  0.14511496835E+02  0.25034757074E+02  0.00000000000E+00 0.  1.
       -5    1    5    5    0  504  0.82162977049E+02 -0.39720678364E+01 -0.13665009916E+03  0.15956776530E+03  0.47000000000E+01 0.  1.
       11    1    6    6    0    0 -0.39501893810E+02  0.13909403288E+02 -0.54808289791E+02  0.68976950818E+02  0.00000000000E+00 0. -1.
      -12    1    6    6    0    0  0.15329811261E+02  0.50082297102E+02 -0.59844234484E+01  0.52716723346E+02  0.00000000000E+00 0.  1.
</event>
<event>
12   0  0.1523332E-01  0.2150950E+03  0.7957747E-01  0.1144241E+00
       21   -1    0    0  501  503  0.00000000000E+00  0.00000000000E+00  0.52308263880E+03  0.52308263880E+03  0.00000000000E+00 0. -1.
       21   -1    0    0  503  504  0.00000000000E+00  0.00000000000E+00 -0.12819074214E+03  0.12819074214E+03  0.00000000000E+00 0.  1.
        6    2    1    2  501    0  0.32801603448E+02 -0.12293918209E+03  0.38175778048E+03  0.43818358603E+03  0.17342394421E+03 0.  0.
       24    2    3    3    0    0  0.29056770886E+02 -0.15714202575E+03  0.29329945535E+03  0.34315294061E+03  0.78685817958E+02 0.  0.
       -6    2    1    2    0  504 -0.32801603448E+02  0.12293918209E+03  0.13134116189E+02  0.21308979491E+03  0.17042525636E+03 0.  0.
      -24    2    5    5    0    0 -0.16958836190E+02  0.34251831587E+02  0.64374297506E+02  0.10933968361E+03  0.79688933611E+02 0.  0.
        5    1    3    3  501    0  0.37448325618E+01  0.34202843651E+02  0.88458325124E+02  0.95030645418E+02  0.47000000000E+01 0. -1.
        4    1    4    4  502    0  0.49303742875E+01 -0.10041836351E+03  0.24505199135E+03  0.26487475301E+03  0.00000000000E+00 0. -1.
       -3    1    4    4    0  502  0.24126396598E+02 -0.56723662235E+02  0.48247464008E+02  0.78278187597E+02  0.00000000000E+00 0.  1.
       -5    1    5    5    0  504 -0.15842767258E+02  0.88687350507E+02 -0.51240181317E+02  0.10375011130E+03  0.47000000000E+01 0.  1.
       11    1    6    6    0    0 -0.43289898952E+02  0.42483953667E+02  0.47049396106E+02  0.76762929493E+02  0.00000000000E+00 0. -1.
      -12    1    6    6    0    0  0.26331062762E+02 -0.82321220798E+01  0.17324901401E+02  0.32576754115E+02  0.00000000000E+00 0.  1.
</event>
<event>
12   0  0.1523332E-01  0.2844474E+03  0.7957747E-01  0.1101270E+00
       21   -1    0    0  504  503  0.00000000000E+00  0.00000000000E+00  0.84792249081E+03  0.84792249081E+03  0.00000000000E+00 0. -1.
       21   -1    0    0  501  504  0.00000000000E+00  0.00000000000E+00 -0.27416768877E+03  0.27416768877E+03  0.00000000000E+00 0.  1.
        6    2    1    2  501    0  0.22092915486E+03 -0.41357361202E+02 -0.16632345046E+03  0.32950536694E+03  0.17432777714E+03 0.  0.
       24    2    3    3    0    0  0.11458109272E+03  0.53640774133E+01 -0.16027422957E+03  0.21309451599E+03  0.81017553328E+02 0.  0.
       -6    2    1    2    0  503 -0.22092915486E+03  0.41357361202E+02  0.74007825250E+03  0.79258481263E+03  0.17307438458E+03 0.  0.
      -24    2    5    5    0    0 -0.18278434903E+03 -0.28633110770E+02  0.57039675579E+03  0.60505456786E+03  0.80675881078E+02 0.  0.
        5    1    3    3  501    0  0.10634806214E+03 -0.46721438615E+02 -0.60492208963E+01  0.11641085095E+03  0.47000000000E+01 0. -1.
        2    1    4    4  502    0  0.33060773891E+02 -0.94846300300E+01 -0.11207560530E+03  0.11723444153E+03  0.00000000000E+00 0. -1.
       -1    1    4    4    0  502  0.81520318829E+02  0.14848707443E+02 -0.48198624263E+02  0.95860074461E+02  0.00000000000E+00 0.  1.
       -5    1    5    5    0  503 -0.38144805823E+02  0.69990471972E+02  0.16968149670E+03  0.18753024477E+03  0.47000000000E+01 0.  1.
       11    1    6    6    0    0 -0.10798499107E+03  0.20251270163E+02  0.36208227380E+03  0.37838399178E+03  0.00000000000E+00 0. -1.
      -12    1    6    6    0    0 -0.74799357960E+02 -0.48884380933E+02  0.20831448200E+03  0.22667057608E+03  0.00000000000E+00 0.  1.
</event>
<event>
12   0  0.1523332E-01  0.1768437E+03  0.7957747E-01  0.1176403E+00
       21   -1    0    0  504  503  0.00000000000E+00  0.00000000000E+00  0.25942116425E+03  0.25942116425E+03  0.00000000000E+00 0.  1.
       21   -1    0    0  501  504  0.00000000000E+00  0.00000000000E+00 -0.12272998282E+03  0.12272998282E+03  0.00000000000E+00 0.  1.
        6    2    1    2  501    0  0.11838170949E+02 -0.37753994618E+02  0.93801574839E+02  0.20018082518E+03  0.17236043898E+03 0.  0.
       24    2    3    3    0    0  0.32623431571E+02 -0.13235119312E+00  0.12944632010E+03  0.14414464956E+03  0.54378528898E+02 0.  0.
       -6    2    1    2    0  503 -0.11838170949E+02  0.37753994618E+02  0.42889606587E+02  0.18197032190E+03  0.17236059090E+03 0.  0.
      -24    2    5    5    0    0  0.23658773562E+02  0.73071620629E+02  0.62825810416E+02  0.12786939769E+03  0.80649247385E+02 0.  0.
        5    1    3    3  501    0 -0.20785260622E+02 -0.37621643425E+02 -0.35644745262E+02  0.56036175618E+02  0.47000000000E+01 0. -1.
        4    1    4    4  502    0  0.22160992283E+02  0.25602512591E+02  0.53914758222E+02  0.63666312788E+02  0.00000000000E+00 0. -1.
       -3    1    4    4    0  502  0.10462439288E+02 -0.25734863784E+02  0.75531561879E+02  0.80478336773E+02  0.00000000000E+00 0.  1.
       -5    1    5    5    0  503 -0.35496944511E+02 -0.35317626011E+02 -0.19936203829E+02  0.54100924205E+02  0.47000000000E+01 0.  1.
       11    1    6    6    0    0  0.31372154559E+00  0.38004668189E+02  0.74947432383E+02  0.84033153256E+02  0.00000000000E+00 0. -1.
      -12    1    6    6    0    0  0.23345052017E+02  0.35066952440E+02 -0.12121621967E+02  0.43836244436E+02  0.00000000000E+00 0.  1.
</event>
<event>
12   0  0.1523332E-01  0.2611298E+03  0.7957747E-01  0.1114075E+00
       21   -1    0    0  501  503  0.00000000000E+00  0.00000000000E+00  0.22239168492E+03  0.22239168492E+03  0.00000000000E+00 0. -1.
       21   -1    0    0  503  504  0.00000000000E+00  0.00000000000E+00 -0.31450557512E+03  0.31450557512E+03  0.00000000000E+00 0.  1.
        6    2    1    2  501    0  0.12359780012E+03  0.14286786227E+03  0.96740152054E+01  0.25663033746E+03  0.17342981656E+03 0.  0.
       24    2    3    3    0    0  0.47049062811E+02  0.13219660145E+03 -0.37105793140E+02  0.16616473373E+03  0.80896990690E+02 0.  0.
       -6    2    1    2    0  504 -0.12359780012E+03 -0.14286786227E+03 -0.10178790540E+03  0.28026692258E+03  0.18028069210E+03 0.  0.
      -24    2    5    5    0    0 -0.12953866262E+03 -0.40962794326E+02 -0.55375993341E+02  0.16803460860E+03  0.81920164901E+02 0.  0.
        5    1    3    3  501    0  0.76548737306E+02  0.10671260814E+02  0.46779808345E+02  0.90465603736E+02  0.47000000000E+01 0. -1.
      -13    1    4    4    0    0  0.69793588007E+02  0.10931175775E+03 -0.30486880438E+02  0.13322783188E+03  0.00000000000E+00 0.  1.
       14    1    4    4    0    0 -0.22744525196E+02  0.22884843704E+02 -0.66189127021E+01  0.32936901845E+02  0.00000000000E+00 0. -1.
       -5    1    5    5    0  504  0.59408625022E+01 -0.10190506794E+03 -0.46411912060E+02  0.11223231398E+03  0.47000000000E+01 0.  1.
        3    1    6    6  502    0  0.83840871946E+00 -0.25164437524E+02  0.80621626905E+00  0.25191304646E+02  0.00000000000E+00 0. -1.
       -4    1    6    6    0  502 -0.13037707134E+03 -0.15798356802E+02 -0.56182209610E+02  0.14284330396E+03  0.00000000000E+00 0.  1.
</event>
<event>
12   0  0.1523332E-01  0.1862973E+03  0.7957747E-01  0.1167674E+00
       21   -1    0    0  504  503  0.00000000000E+00  0.00000000000E+00  0.25558541495E+03  0.25558541495E+03  0.00000000000E+00 0.  1.
       21   -1    0    0  501  504  0.00000000000E+00  0.00000000000E+00 -0.13300298140E+03  0.13300298140E+03  0.00000000000E+00 0.  1.
        6    2    1    2  501    0  0.18235360608E+02  0.48239760149E+02  0.81046646339E+02  0.20316307183E+03  0.17901696020E+03 0.  0.
       24    2    3    3    0    0  0.78852897166E+02  0.77651738261E+01  0.49692979832E+02  0.12367835456E+03  0.80925063028E+02 0.  0.
       -6    2    1    2    0  503 -0.18235360608E+02 -0.48239760149E+02  0.41535787213E+02  0.18542532452E+03  0.17319851765E+03 0.  0.
      -24    2    5    5    0    0 -0.25342555317E+02 -0.97622865447E+02  0.17756389413E+02  0.12995683738E+03  0.80006382546E+02 0.  0.
        5    1    3    3  501    0 -0.60617536557E+02  0.40474586323E+02  0.31353666507E+02  0.79484717271E+02  0.47000000000E+01 0. -1.
        2    1    4    4  502    0  0.45471639753E+02  0.36302305000E+02  0.11208463838E+01  0.58196079479E+02  0.00000000000E+00 0. -1.
       -1    1    4    4    0  502  0.33381257412E+02 -0.28537131173E+02  0.48572133449E+02  0.65482275081E+02  0.00000000000E+00 0.  1.
       -5    1    5    5    0  503  0.71071947091E+01  0.49383105299E+02  0.23779397800E+02  0.55468487137E+02  0.47000000000E+01 0.  1.
       13    1    6    6    0    0 -0.12952504532E+02 -0.38026044806E+02  0.47498475361E+02  0.62208139490E+02  0.00000000000E+00 0. -1.
      -14    1    6    6    0    0 -0.12390050786E+02 -0.59596820641E+02 -0.29742085947E+02  0.67748697888E+02  0.00000000000E+00 0.  1.
</event>
<event>
12   0  0.1523332E-01  0.1839485E+03  0.7957747E-01  0.1169789E+00
       21   -1    0    0  504  503  0.00000000000E+00  0.00000000000E+00  0.44788435083E+03  0.44788435083E+03  0.00000000000E+00 0.  1.
       21   -1    0    0  501  504  0.00000000000E+00  0.00000000000E+00 -0.82051013302E+02  0.82051013302E+02  0.00000000000E+00 0. -1.
        6    2    1    2  501    0  0.55552415751E+02 -0.27894321447E+02  0.10383520048E+03  0.20981029700E+03  0.17138975408E+03 0.  0.
       24    2    3    3    0    0  0.81334597949E+02 -0.12056118653E+02  0.12762023803E+03  0.17103675450E+03  0.78778038911E+02 0.  0.
       -6    2    1    2    0  503 -0.55552415751E+02  0.27894321447E+02  0.26199813704E+03  0.32012506713E+03  0.17312674757E+03 0.  0.
      -24    2    5    5    0    0  0.16551511808E+02 -0.29211401721E+02  0.16264749370E+03  0.18465300241E+03  0.80717194920E+02 0.  0.
        5    1    3    3  501    0 -0.25782182199E+02 -0.15838202794E+02 -0.23785037550E+02  0.38773542499E+02  0.47000000000E+01 0. -1.
      -11    1    4    4    0    0  0.51026633863E+02 -0.25823779673E+00  0.12875077385E+03  0.13849384758E+03  0.00000000000E+00 0.  1.
       12    1    4    4    0    0  0.30307964087E+02 -0.11797880856E+02 -0.11305358191E+01  0.32542906923E+02  0.00000000000E+00 0. -1.
       -5    1    5    5    0  503 -0.72103927559E+02  0.57105723168E+02  0.99350643341E+02  0.13547206472E+03  0.47000000000E+01 0.  1.
        1    1    6    6  502    0  0.12068632901E+01  0.23845932532E+02  0.18248345563E+02  0.30051408172E+02  0.00000000000E+00 0. -1.
       -2    1    6    6    0  502  0.15344648518E+02 -0.53057334253E+02  0.14439914814E+03  0.15460159423E+03  0.00000000000E+00 0.  1.
</event>
<event>
12   0  0.1523332E-01  0.2072952E+03  0.7957747E-01  0.1150172E+00
       21   -1    0    0  504  503  0.00000000000E+00  0.00000000000E+00  0.34020958528E+03  0.34020958528E+03  0.00000000000E+00 0. -1.
       21   -1    0    0  501  504  0.00000000000E+00  0.00000000000E+00 -0.13346711454E+03  0.13346711454E+03  0.00000000000E+00 0. -1.
        6    2    1    2  501    0 -0.96423131179E+02 -0.61106032223E+02  0.46486351129E+02  0.21244363626E+03  0.17303164550E+03 0.  0.
       24    2    3    3    0    0 -0.14034538644E+01 -0.23283795871E+02  0.68071593798E+02  0.10781441787E+03  0.80287620374E+02 0.  0.
       -6    2    1    2    0  503  0.96423131179E+02  0.61106032223E+02  0.16025611961E+03  0.26123306356E+03  0.17184097947E+03 0.  0.
      -24    2    5    5    0    0  0.11866963488E+03  0.32442991405E+02  0.16888595881E+03  0.22364262647E+03  0.79740374714E+02 0.  0.
        5    1    3    3  501    0 -0.95019677315E+02 -0.37822236353E+02 -0.21585242669E+02  0.10462921839E+03  0.47000000000E+01 0. -1.
        4    1    4    4  502    0  0.31923277250E+02 -0.13186705928E+02  0.38423489562E+01  0.34752675999E+02  0.00000000000E+00 0. -1.
       -3    1    4    4    0  502 -0.33326731114E+02 -0.10097089942E+02  0.64229244842E+02  0.73061741870E+02  0.00000000000E+00 0.  1.
       -5    1    5    5    0  503 -0.22246503697E+02  0.28663040819E+02 -0.86298392033E+01  0.37590437087E+02  0.47000000000E+01 0.  1.
       11    1    6    6    0    0  0.72911625374E+02  0.42766680307E+02  0.55992396638E+02  0.10139153091E+03  0.00000000000E+00 0. -1.
      -12    1    6    6    0    0  0.45758009502E+02 -0.10323688902E+02  0.11289356217E+03  0.12225109556E+03  0.00000000000E+00 0.  1.
</event>
<event>
12   0  0.1523332E-01  0.1797582E+03  0.7957747E-01  0.1173649E+00
       21   -1    0    0  501  503  0.00000000000E+00  0.00000000000E+00  0.27845995437E+02  0.27845995437E+02  0.00000000000E+00 0. -1.
       21   -1    0    0  503  504  0.00000000000E+00  0.00000000000E+00 -0.12101485597E+04  0.12101485597E+04  0.00000000000E+00 0. -1.
        6    2    1    2  501    0 -0.47089862144E+02 -0.95628075269E+01 -0.46207844178E+03  0.49581194092E+03  0.17321689293E+03 0.  0.
       24    2    3    3    0    0 -0.44037312443E+02 -0.35449346051E+02 -0.15427604345E+03  0.18687208050E+03  0.89017615481E+02 0.  0.
       -6    2    1    2    0  504  0.47089862144E+02  0.95628075269E+01 -0.72022412253E+03  0.74218261426E+03  0.17263644991E+03 0.  0.
      -24    2    5    5    0    0  0.63326630858E+02  0.41400226531E+02 -0.68017533934E+03  0.68830080897E+03  0.73452504678E+02 0.  0.
        5    1    3    3  501    0 -0.30525497015E+01  0.25886538524E+02 -0.30780239833E+03  0.30893986042E+03  0.47000000000E+01 0. -1.
      -13    1    4    4    0    0 -0.14047649417E+02 -0.40014158445E+02 -0.15043079928E+03  0.15629425678E+03  0.00000000000E+00 0.  1.
       14    1    4    4    0    0 -0.29989663026E+02  0.45648123948E+01 -0.38452441644E+01  0.30577823717E+02  0.00000000000E+00 0. -1.
       -5    1    5    5    0  504 -0.16236768714E+02 -0.31837419004E+02 -0.40048783184E+02  0.53881805293E+02  0.47000000000E+01 0.  1.
        1    1    6    6  502    0  0.30696773647E+02  0.42138621956E+02 -0.59178752968E+03  0.59407948597E+03  0.00000000000E+00 0. -1.
       -2    1    6    6    0  502  0.32629857211E+02 -0.73839542535E+00 -0.88387809665E+02  0.94221322995E+02  0.00000000000E+00 0.  1.
</event>
<event>
12   0  0.1523332E-01  0.1916080E+03  0.7957747E-01  0.1163016E+00
       21   -1    0    0  504  503  0.00000000000E+00  0.00000000000E+00  0.36905567079E+03  0.36905567079E+03  0.00000000000E+00 0.  1.
       21   -1    0    0  501  504  0.00000000000E+00  0.00000000000E+00 -0.99065523228E+02  0.99065523228E+02  0.00000000000E+00 0.  1.
        6    2    1    2  501    0  0.48047028481E+02  0.65126464304E+02  0.12057737578E+03  0.22639021369E+03  0.17367686087E+03 0.  0.
       24    2    3    3    0    0  0.15043186084E+02  0.13172554158E+02 -0.80074406749E+01  0.83755689759E+02  0.80938759752E+02 0.  0.
       -6    2    1    2    0  503 -0.48047028481E+02 -0.65126464304E+02  0.14941277178E+03  0.24173098034E+03  0.17192939593E+03 0.  0.
      -24    2    5    5    0    0  0.24752012643E+02 -0.43658411585E+01  0.11013214629E+03  0.13898560938E+03  0.80970286336E+02 0.  0.
        5    1    3    3  501    0  0.33003842397E+02  0.51953910146E+02  0.12858481646E+03  0.14263452393E+03  0.47000000000E+01 0. -1.
        2    1    4    4  502    0 -0.24955194697E+02  0.28664741283E+02  0.63299143906E+01  0.38529170136E+02  0.00000000000E+00 0. -1.
       -1    1    4    4    0  502  0.39998380781E+02 -0.15492187124E+02 -0.14337355065E+02  0.45226519623E+02  0.00000000000E+00 0.  1.
       -5    1    5    5    0  503 -0.72799041124E+02 -0.60760623146E+02  0.39280625494E+02  0.10274537096E+03  0.47000000000E+01 0.  1.
       13    1    6    6    0    0  0.21539086368E+02  0.58614006487E+00 -0.62646024994E+01  0.22439274637E+02  0.00000000000E+00 0. -1.
      -14    1    6    6    0    0  0.32129262750E+01 -0.49519812234E+01  0.11639674879E+03  0.11654633474E+03  0.00000000000E+00 0.  1.
</event>
<event>
12   0  0.1523332E-01  0.1880803E+03  0.7957747E-01  0.1166091E+00
       21   -1    0    0  501  503  0.00000000000E+00  0.00000000000E+00  0.11837779600E+03  0.11837779600E+03  0.00000000000E+00 0.  1.
       21   -1    0    0  503  504  0.00000000000E+00  0.00000000000E+00 -0.75498830619E+03  0.75498830619E+03  0.00000000000E+00 0.  1.
        6    2    1    2  501    0  0.20808737743E+02  0.70896942100E+02  0.21410042973E+02  0.18929497570E+03  0.17295900648E+03 0.  0.
       24    2    3    3    0    0  0.23280121137E+01 -0.15058579686E+02  0.50188937084E+02  0.96665586785E+02  0.81198065249E+02 0.  0.
       -6    2    1    2    0  504 -0.20808737743E+02 -0.70896942100E+02 -0.65802055316E+03  0.68407112649E+03  0.17176401760E+03 0.  0.
      -24    2    5    5    0    0  0.33270335870E+02 -0.59179735613E+02 -0.24023314902E+03  0.26260909475E+03  0.81501008605E+02 0.  0.
        5    1    3    3  501    0  0.18480725629E+02  0.85955521787E+02 -0.28778894111E+02  0.92629388920E+02  0.47000000000E+01 0. -1.
        4    1    4    4  502    0 -0.15875040319E+02 -0.38728366606E+02  0.45169805785E+01  0.42098769563E+02  0.00000000000E+00 0. -1.
       -3    1    4    4    0  502  0.18203052433E+02  0.23669786920E+02  0.45671956505E+02  0.54566817222E+02  0.00000000000E+00 0.  1.
       -5    1    5    5    0  504 -0.54079073612E+02 -0.11717206487E+02 -0.41778740414E+03  0.42146203173E+03  0.47000000000E+01 0.  1.
       13    1    6    6    0    0  0.37600245126E+02 -0.18725964844E+02 -0.39048088190E+02  0.57351489816E+02  0.00000000000E+00 0. -1.
      -14    1    6    6    0    0 -0.43299092567E+01 -0.40453770769E+02 -0.20118506083E+03  0.20525760494E+03  0.00000000000E+00 0.  1.
</event>
<event>
12   0  0.1523332E-01  0.3172398E+03  0.7957747E-01  0.1085357E+00
       21   -1    0    0  504  503  0.00000000000E+00  0.00000000000E+00  0.22307756444E+03  0.22307756444E+03  0.00000000000E+00 0.  1.
       21   -1    0    0  501  504  0.00000000000E+00  0.00000000000E+00 -0.61662568503E+03  0.61662568503E+03  0.00000000000E+00 0. -1.
        6    2    1    2  501    0 -0.26217852285E+03  0.26168186371E+02 -0.41536581591E+03  0.52171414007E+03  0.17388079565E+03 0.  0.
       24    2    3    3    0    0 -0.18840294046E+03  0.79608593153E+02 -0.24898915818E+03  0.33197222094E+03  0.79854608583E+02 0.  0.
       -6    2    1    2    0  503  0.26217852285E+03 -0.26168186371E+02  0.21817695317E+02  0.31798910941E+03  0.17668817179E+03 0.  0.
      -24    2    5    5    0    0  0.11235329536E+03  0.29302660442E+02 -0.42560933395E+02  0.14567743982E+03  0.76997237191E+02 0.  0.
        5    1    3    3  501    0 -0.73775582399E+02 -0.53440406781E+02 -0.16637665773E+03  0.18974191912E+03  0.47000000000E+01 0. -1.
        4    1    4    4  502    0 -0.17154720006E+03  0.63140725516E+02 -0.24838493794E+03  0.30839953058E+03  0.00000000000E+00 0. -1.
       -3    1    4    4    0  502 -0.16855740396E+02  0.16467867637E+02 -0.60422023711E+00  0.23572690362E+02  0.00000000000E+00 0.  1.
       -5    1    5    5    0  503  0.14982522750E+03 -0.55470846813E+02  0.64378628712E+02  0.17231166959E+03  0.47000000000E+01 0.  1.
       13    1    6    6    0    0  0.58981464667E+02  0.30577159537E+02  0.14005101145E+02  0.67896382214E+02  0.00000000000E+00 0. -1.
      -14    1    6    6    0    0  0.53371830688E+02 -0.12744990952E+01 -0.56566034540E+02  0.77781057607E+02  0.00000000000E+00 0.  1.
</event>
<event>
12   0  0.1523332E-01  0.1786135E+03  0.7957747E-01  0.1174724E+00
       21   -1    0    0  504  503  0.00000000000E+00  0.00000000000E+00  0.13146989708E+03  0.13146989708E+03  0.00000000000E+00 0.  1.
       21   -1    0    0  501  504  0.00000000000E+00  0.00000000000E+00 -0.51569414107E+03  0.51569414107E+03  0.00000000000E+00 0.  1.
        6    2    1    2  501    0 -0.22908133290E+01  0.40734748356E+02 -0.42847400924E+03  0.46315089893E+03  0.17103862440E+03 0.  0.
       24    2    3    3    0    0 -0.24942928647E+02  0.91586471483E+01 -0.40920077428E+03  0.41951930394E+03  0.88572807343E+02 0.  0.
       -6    2    1    2    0  503  0.22908133290E+01 -0.40734748356E+02  0.44249765251E+02  0.18401313922E+03  0.17389142052E+03 0.  0.
      -24    2    5    5    0    0 -0.63704447758E+02 -0.81333260143E+01  0.25943322752E+02  0.10801680338E+03  0.82886465480E+02 0.  0.
        5    1    3    3  501    0  0.22652115318E+02  0.31576101207E+02 -0.19273234963E+02  0.43631594994E+02  0.47000000000E+01 0. -1.
        4    1    4    4  502    0 -0.46073617301E+02 -0.20679815151E+02 -0.16376433748E+03  0.17137441815E+03  0.00000000000E+00 0. -1.
       -3    1    4    4    0  502  0.21130688654E+02  0.29838462299E+02 -0.24543643679E+03  0.24814488578E+03  0.00000000000E+00 0.  1.
       -5    1    5    5    0  503  0.65995261087E+02 -0.32601422341E+02  0.18306442500E+02  0.75996335843E+02  0.47000000000E+01 0.  1.
       11    1    6    6    0    0  0.19535114165E+02  0.29998956448E+01  0.11307711980E+02  0.22770252733E+02  0.00000000000E+00 0. -1.
      -12    1    6    6    0    0 -0.83239561923E+02 -0.11133221659E+02  0.14635610772E+02  0.85246550642E+02  0.00000000000E+00 0.  1.
</event>
<event>
12   0  0.1523332E-01  0.2398496E+03  0.7957747E-01  0.1127099E+00
       21   -1    0    0  501  503  0.00000000000E+00  0.00000000000E+00  0.28675543995E+03  0.28675543995E+03  0.00000000000E+00 0. -1.
       21   -1    0    0  503  504  0.00000000000E+00  0.00000000000E+00 -0.21981118775E+03  0.21981118775E+03  0.00000000000E+00 0.  1.
        6    2    1    2  501    0  0.16063611544E+03 -0.44053784687E+02  0.11638531408E+03  0.26659586463E+03  0.17257785540E+03 0.  0.
       24    2    3    3    0    0  0.91508246781E+02 -0.12229605963E+01 -0.34090315975E+01  0.12173069637E+03  0.80196546563E+02 0.  0.
       -6    2    1    2    0  504 -0.16063611544E+03  0.44053784687E+02 -0.49441061888E+02  0.23997076307E+03  0.16551994140E+03 0.  0.
      -24    2    5    5    0    0 -0.92372825428E+02  0.57585424486E+02  0.25432015680E+02  0.13764261551E+03  0.80311158582E+02 0.  0.
        5    1    3    3  501    0  0.69127868656E+02 -0.42830824091E+02  0.11979434568E+03  0.14486516826E+03  0.47000000000E+01 0. -1.
        4    1    4    4  502    0  0.28933917969E+02 -0.14066378823E+02 -0.37430753702E+02  0.49356822679E+02  0.00000000000E+00 0. -1.
       -3    1    4    4    0  502  0.62574328812E+02  0.12843418227E+02  0.34021722105E+02  0.72373873691E+02  0.00000000000E+00 0.  1.
       -5    1    5    5    0  504 -0.68263290009E+02 -0.13531639798E+02 -0.74873077569E+02  0.10232814756E+03  0.47000000000E+01 0.  1.
       11    1    6    6    0    0 -0.97447914257E+02  0.23264753968E+02  0.23437233890E+02  0.10289144135E+03  0.00000000000E+00 0. -1.
      -12    1    6    6    0    0  0.50750888287E+01  0.34320670518E+02  0.19947817901E+01  0.34751174165E+02  0.00000000000E+00 0.  1.
</event>
<event>
12   0  0.1523332E-01  0.2240812E+03  0.7957747E-01  0.1137739E+00
       21   -1    0    0  501  503  0.00000000000E+00  0.00000000000E+00  0.61778299121E+03  0.61778299121E+03  0.00000000000E+00 0. -1.
       21   -1    0    0  503  504  0.00000000000E+00  0.00000000000E+00 -0.88328529150E+02  0.88328529150E+02  0.00000000000E+00 0. -1.
        6    2    1    2  501    0  0.13315220764E+03  0.43836947012E+02  0.15764823673E+03  0.27200065829E+03  0.17169800011E+03 0.  0.
       24    2    3    3    0    0  0.67608073035E+02  0.36270593988E+02  0.17170100432E+03  0.20437778082E+03  0.80016466309E+02 0.  0.
       -6    2    1    2    0  504 -0.13315220764E+03 -0.43836947012E+02  0.37180622533E+03  0.43411086207E+03  0.17481757077E+03 0.  0.
      -24    2    5    5    0    0 -0.94380771126E+02  0.34887360182E+02  0.26739516663E+03  0.29763925326E+03  0.83451135914E+02 0.  0.
        5    1    3    3  501    0  0.65544134610E+02  0.75663530238E+01 -0.14052767593E+02  0.67622877467E+02  0.47000000000E+01 0. -1.
      -13    1    4    4    0    0 -0.13933945166E+02  0.67125841148E+01  0.65289155399E+02  0.67096105893E+02  0.00000000000E+00 0.  1.
       14    1    4    4    0    0  0.81542018200E+02  0.29558009873E+02  0.10641184893E+03  0.13728167493E+03  0.00000000000E+00 0. -1.
       -5    1    5    5    0  504 -0.38771436519E+02 -0.78724307194E+02  0.10441105870E+03  0.13647160881E+03  0.47000000000E+01 0.  1.
        3    1    6    6  502    0 -0.67235871270E+02 -0.14778197966E+01  0.78495448159E+02  0.10336528295E+03  0.00000000000E+00 0. -1.
       -4    1    6    6    0  502 -0.27144899855E+02  0.36365179979E+02  0.18889971847E+03  0.19427397032E+03  0.00000000000E+00 0.  1.
</event>
<event>
12   0  0.1523332E-01  0.1905903E+03  0.7957747E-01  0.1163896E+00
       21   -1    0    0  504  503  0.00000000000E+00  0.00000000000E+00  0.17062329838E+03  0.17062329838E+03  0.00000000000E+00 0. -1.
       21   -1    0    0  501  504  0.00000000000E+00  0.00000000000E+00 -0.22895477886E+03  0.22895477886E+03  0.00000000000E+00 0. -1.
        6    2    1    2  501    0 -0.31384204536E+02 -0.74319303905E+02 -0.83050054284E+02  0.20789892577E+03  0.17267404146E+03 0.  0.
       24    2    3    3    0    0  0.45444585671E+02 -0.40228595973E+02 -0.19780618023E+02  0.10259008979E+03  0.80311290441E+02 0.  0.
       -6    2    1    2    0  503  0.31384204536E+02  0.74319303905E+02  0.24718573805E+02  0.19167915147E+03  0.17210915720E+03 0.  0.
      -24    2    5    5    0    0 -0.15124588015E+02  0.50677247049E+01 -0.36820067036E+02  0.87910450397E+02  0.78218252065E+02 0.  0.
        5    1    3    3  501    0 -0.76828790207E+02 -0.34090707933E+02 -0.63269436260E+02  0.10530883599E+03  0.47000000000E+01 0. -1.
        4    1    4    4  502    0  0.42531505152E+02 -0.60811844286E+02 -0.46130502046E+00  0.74210660543E+02  0.00000000000E+00 0. -1.
       -3    1    4    4    0  502  0.29130805199E+01  0.20583248314E+02 -0.19319313003E+02  0.28379429243E+02  0.00000000000E+00 0.  1.
       -5    1    5    5    0  503  0.46508792551E+02  0.69251579200E+02  0.61538640841E+02  0.10376870108E+03  0.47000000000E+01 0.  1.
       11    1    6    6    0    0 -0.26567630482E+02  0.32565562654E+02 -0.19797398086E+01  0.42074626916E+02  0.00000000000E+00 0. -1.
      -12    1    6    6    0    0  0.11443042467E+02 -0.27497837949E+02 -0.34840327228E+02  0.45835823480E+02  0.00000000000E+00 0.  1.
</event>
<event>
12   0  0.1523332E-01  0.4291769E+03  0.7957747E-01  0.1043589E+00
       21   -1    0    0  501  503  0.00000000000E+00  0.00000000000E+00  0.47812535834E+03  0.47812535834E+03  0.00000000000E+00 0.  1.
       21   -1    0    0  503  504  0.00000000000E+00  0.00000000000E+00 -0.39153486089E+03  0.39153486089E+03  0.00000000000E+00 0. -1.
        6    2    1    2  501    0  0.30890437100E+03 -0.23994353071E+03  0.10292780395E+03  0.44017250658E+03  0.17367467970E+03 0.  0.
       24    2    3    3    0    0  0.24396238239E+03 -0.14358310055E+03  0.23788628219E+02  0.29950305886E+03  0.94881150143E+02 0.  0.
       -6    2    1    2    0  504 -0.30890437100E+03  0.23994353071E+03 -0.16337306503E+02  0.42948771266E+03  0.17662949750E+03 0.  0.
      -24    2    5    5    0    0 -0.28143431650E+03  0.17058304138E+03 -0.59854046428E+02  0.34299333118E+03  0.75881946776E+02 0.  0.
        5    1    3    3  501    0  0.64941988617E+02 -0.96360430156E+02  0.79139175735E+02  0.14066944772E+03  0.47000000000E+01 0. -1.
      -13    1    4    4    0    0  0.10220310464E+03 -0.36175695145E+02  0.50593415224E+02  0.11964049975E+03  0.00000000000E+00 0.  1.
       14    1    4    4    0    0  0.14175927775E+03 -0.10740740541E+03 -0.26804787005E+02  0.17986255911E+03  0.00000000000E+00 0. -1.
       -5    1    5    5    0  504 -0.27470054501E+02  0.69360489322E+02  0.43516739926E+02  0.86494381477E+02  0.47000000000E+01 0.  1.
        3    1    6    6  502    0 -0.20063069405E+03  0.79108746751E+02 -0.39744481757E+02  0.21929544692E+03  0.00000000000E+00 0. -1.
       -4    1    6    6    0  502 -0.80803622450E+02  0.91474294633E+02 -0.20109564672E+02  0.12369788426E+03  0.00000000000E+00 0.  1.
</event>
<event>
12   0  0.1523332E-01  0.2452023E+03  0.7957747E-01  0.1123688E+00
       21   -1    0    0  501  503  0.00000000000E+00  0.00000000000E+00  0.57866897349E+03  0.57866897349E+03  0.00000000000E+00 0.  1.
       21   -1    0    0  503  504  0.00000000000E+00  0.00000000000E+00 -0.15881459907E+03  0.15881459907E+03  0.00000000000E+00 0. -1.
        6    2    1    2  501    0 -0.16344480988E+03 -0.57094974302E+02  0.42749486038E+03  0.49282455864E+03  0.17363797966E+03 0.  0.
       24    2    3    3    0    0 -0.27555535709E+02 -0.22582671253E+01  0.24048324133E+03  0.25519376319E+03  0.80791460507E+02 0.  0.
       -6    2    1    2    0  504  0.16344480988E+03  0.57094974302E+02 -0.76404859585E+01  0.24465901391E+03  0.17270093832E+03 0.  0.
      -24    2    5    5    0    0  0.11439320524E+03 -0.29139702141E+02 -0.22746132673E+02  0.14419633477E+03  0.79625804627E+02 0.  0.
        5    1    3    3  501    0 -0.13588927417E+03 -0.54836707177E+02  0.18701161906E+03  0.23763079546E+03  0.47000000000E+01 0. -1.
      -11    1    4    4    0    0 -0.48253668855E+02 -0.53254711652E+00  0.22264636727E+03  0.22781594550E+03  0.00000000000E+00 0.  1.
       12    1    4    4    0    0  0.20698133146E+02 -0.17257200088E+01  0.17836874060E+02  0.27377817690E+02  0.00000000000E+00 0. -1.
       -5    1    5    5    0  504  0.49051604635E+02  0.86234676443E+02  0.15105646714E+02  0.10046267915E+03  0.47000000000E+01 0.  1.
        3    1    6    6  502    0  0.90628008939E+02 -0.52697038379E+02 -0.20585070707E+01  0.10485538284E+03  0.00000000000E+00 0. -1.
       -4    1    6    6    0  502  0.23765196305E+02  0.23557336238E+02 -0.20687625602E+02  0.39340951934E+02  0.00000000000E+00 0.  1.
</event>
<event>
12   0  0.1523332E-01  0.2413834E+03  0.7957747E-01  0.1126111E+00
       21   -1    0    0  504  503  0.00000000000E+00  0.00000000000E+00  0.85276300429E+02  0.85276300429E+02  0.00000000000E+00 0.  1.
       21   -1    0    0  501  504  0.00000000000E+00  0.00000000000E+00 -0.72260135837E+03  0.72260135837E+03  0.00000000000E+00 0.  1.
        6    2    1    2  501    0 -0.12782271145E+03  0.72389309754E+02 -0.43829726483E+03  0.49502305141E+03  0.17710017319E+03 0.  0.
       24    2    3    3    0    0 -0.95588031565E+02  0.98193979241E+02 -0.42088081775E+03  0.44996333344E+03  0.80914827768E+02 0.  0.
       -6    2    1    2    0  503  0.12782271145E+03 -0.72389309754E+02 -0.19902779310E+03  0.31285460738E+03  0.19153873029E+03 0.  0.
      -24    2    5    5    0    0  0.82617051014E+01  0.25649824269E+02 -0.50077549266E+02  0.98111106479E+02  0.79949102671E+02 0.  0.
        5    1    3    3  501    0 -0.32234679887E+02 -0.25804669487E+02 -0.17416447077E+02  0.45059717970E+02  0.47000000000E+01 0. -1.
      -13    1    4    4    0    0 -0.93080046514E+02  0.41449788983E+02 -0.25366819783E+03  0.27336703287E+03  0.00000000000E+00 0.  1.
       14    1    4    4    0    0 -0.25079850509E+01  0.56744190258E+02 -0.16721261992E+03  0.17659630058E+03  0.00000000000E+00 0. -1.
       -5    1    5    5    0  503  0.11956100635E+03 -0.98039134023E+02 -0.14895024384E+03  0.21474350090E+03  0.47000000000E+01 0.  1.
        1    1    6    6  502    0  0.12363555975E+02  0.53645756184E+02 -0.25665752895E+02  0.60740888572E+02  0.00000000000E+00 0. -1.
       -2    1    6    6    0  502 -0.41018508734E+01 -0.27995931914E+02 -0.24411796372E+02  0.37370217907E+02  0.00000000000E+00 0.  1.
</event>
<event>
12   0  0.1523332E-01  0.1958623E+03  0.7957747E-01  0.1159403E+00
        1   -1    0    0  502    0  0.00000000000E+00  0.00000000000E+00  0.29880576521E+03  0.29880576521E+03  0.00000000000E+00 0. -1.
       -1   -1    0    0    0  501  0.00000000000E+00  0.00000000000E+00 -0.19778620560E+03  0.19778620560E+03  0.00000000000E+00 0.  1.
        6    2    1    2  502    0  0.69348672198E+02  0.47373481022E+02 -0.97149894593E+02  0.21519016102E+03  0.17267083813E+03 0.  0.
       24    2    3    3    0    0  0.72791147675E+02  0.80878812450E+02 -0.11396621261E+03  0.17725157350E+03  0.81178132587E+02 0.  0.
       -6    2    1    2    0  501 -0.69348672198E+02 -0.47373481022E+02  0.19816945420E+03  0.28140180980E+03  0.18127978635E+03 0.  0.
      -24    2    5    5    0    0 -0.10363913700E+03 -0.21948310920E+02  0.19812516377E+03  0.23845571320E+03  0.79904615448E+02 0.  0.
        5    1    3    3  502    0 -0.34424754763E+01 -0.33505331428E+02  0.16816318014E+02  0.37938587520E+02  0.47000000000E+01 0. -1.
        2    1    4    4  503    0  0.64712933155E+02  0.59234652832E+02 -0.34121486862E+02  0.94131735771E+02  0.00000000000E+00 0. -1.
       -1    1    4    4    0  503  0.80782145200E+01  0.21644159618E+02 -0.79844725744E+02  0.83119837732E+02  0.00000000000E+00 0.  1.
       -5    1    5    5    0  501  0.34290464802E+02 -0.25425170102E+02  0.44290434694E-01  0.42946096595E+02  0.47000000000E+01 0.  1.
       11    1    6    6    0    0 -0.22406531606E+02 -0.20824170190E+02  0.78760872978E+01  0.31586887688E+02  0.00000000000E+00 0. -1.
      -12    1    6    6    0    0 -0.81232605395E+02 -0.11241407298E+01  0.19024907647E+03  0.20686882551E+03  0.00000000000E+00 0.  1.
</event>
<event>
12   0  0.1523332E-01  0.1950042E+03  0.7957747E-01  0.1160124E+00
       21   -1    0    0  501  503  0.00000000000E+00  0.00000000000E+00  0.14197127870E+03  0.14197127870E+03  0.00000000000E+00 0. -1.
       21   -1    0    0  503  504  0.00000000000E+00  0.00000000000E+00 -0.29673728136E+03  0.29673728136E+03  0.00000000000E+00 0.  1.
        6    2    1    2  501    0 -0.64454902294E+02  0.59249815126E+02 -0.70967430149E+01  0.19513325713E+03  0.17424594472E+03 0.  0.
       24    2    3    3    0    0 -0.36916109435E+02  0.83735546812E+02  0.46329379091E+02  0.13006116870E+03  0.79969089664E+02 0.  0.
       -6    2    1    2    0  504  0.64454902294E+02 -0.59249815126E+02 -0.14766925965E+03  0.24357530293E+03  0.17279393198E+03 0.  0.
      -24    2    5    5    0    0  0.18747921762E+02 -0.96165838746E+02 -0.72137752596E+02  0.14776810369E+03  0.83858237552E+02 0.  0.
        5    1    3    3  501    0 -0.27538792860E+02 -0.24485731687E+02 -0.53426122106E+02  0.65072088422E+02  0.47000000000E+01 0. -1.
      -13    1    4    4    0    0  0.14720172064E+02  0.48428020980E+02 -0.25429474177E+01  0.50679613882E+02  0.00000000000E+00 0.  1.
       14    1    4    4    0    0 -0.51636281499E+02  0.35307525832E+02  0.48872326508E+02  0.79381554821E+02  0.00000000000E+00 0. -1.
       -5    1    5    5    0  504  0.45706980532E+02  0.36916023621E+02 -0.75531507051E+02  0.95807199243E+02  0.47000000000E+01 0.  1.
        3    1    6    6  502    0  0.50768514716E+02 -0.42446629239E+02 -0.32491078219E+02  0.73721289897E+02  0.00000000000E+00 0. -1.
       -4    1    6    6    0  502 -0.32020592954E+02 -0.53719209508E+02 -0.39646674377E+02  0.74046813789E+02  0.00000000000E+00 0.  1.
</event>
<event>
12   0  0.1523332E-01  0.2427265E+03  0.7957747E-01  0.1125254E+00
       21   -1    0    0  504  503  0.00000000000E+00  0.00000000000E+00  0.23698264442E+03  0.23698264442E+03  0.00000000000E+00 0.  1.
       21   -1    0    0  501  504  0.00000000000E+00  0.00000000000E+00 -0.25556127605E+03  0.25556127605E+03  0.00000000000E+00 0. -1.
        6    2    1    2  501    0  0.16730777715E+03 -0.34720286300E+02  0.35792521215E+02  0.24535124970E+03  0.17239124276E+03 0.  0.
       24    2    3    3    0    0  0.12098496916E+03 -0.65575186987E+02 -0.32710377681E+02  0.15696253666E+03  0.68042642485E+02 0.  0.
       -6    2    1    2    0  503 -0.16730777715E+03  0.34720286300E+02 -0.54371152846E+02  0.24719267076E+03  0.17014876915E+03 0.  0.
      -24    2    5    5    0    0 -0.19429693520E+03  0.28540849384E+02 -0.38247055092E+02  0.21480939389E+03  0.78194369172E+02 0.  0.
        5    1    3    3  501    0  0.46322807990E+02  0.30854900686E+02  0.68502898896E+02  0.88388713044E+02  0.47000000000E+01 0. -1.
      -13    1    4    4    0    0  0.10349936371E+03 -0.31665087050E+02 -0.24440246544E+01  0.10826250174E+03  0.00000000000E+00 0.  1.
       14    1    4    4    0    0  0.17485605445E+02 -0.33910099937E+02 -0.30266353027E+02  0.48700034918E+02  0.00000000000E+00 0. -1.
       -5    1    5    5    0  503  0.26989158047E+02  0.61794369158E+01 -0.16124097753E+02  0.32383276873E+02  0.47000000000E+01 0.  1.
        1    1    6    6  502    0 -0.16100528203E+03  0.10695475270E+02 -0.43211636757E+00  0.16136071628E+03  0.00000000000E+00 0. -1.
       -2    1    6    6    0  502 -0.33291653163E+02  0.17845374114E+02 -0.37814938725E+02  0.53448677611E+02  0.00000000000E+00 0.  1.
</event>
<event>
12   0  0.1523332E-01  0.1817543E+03  0.7957747E-01  0.1171796E+00
       21   -1    0    0  501  503  0.00000000000E+00  0.00000000000E+00  0.17822766965E+03  0.17822766965E+03  0.00000000000E+00 0. -1.
       21   -1    0    0  503  504  0.00000000000E+00  0.00000000000E+00 -0.25205645728E+03  0.25205645728E+03  0.00000000000E+00 0. -1.
        6    2    1    2  501    0 -0.49011579069E+02  0.26502466376E+02  0.74318436720E+02  0.19636154382E+03  0.17300320878E+03 0.  0.
       24    2    3    3    0    0  0.59743095897E+01  0.73489644514E+02  0.37220893427E+02  0.11493943024E+03  0.79932831125E+02 0.  0.
       -6    2    1    2    0  504  0.49011579069E+02 -0.26502466376E+02 -0.14814722434E+03  0.23392258311E+03  0.17224302366E+03 0.  0.
      -24    2    5    5    0    0  0.53522450413E+02 -0.80090587875E+02 -0.11652743795E+03  0.17136112838E+03  0.80664971090E+02 0.  0.
        5    1    3    3  501    0 -0.54985888658E+02 -0.46987178138E+02  0.37097543294E+02  0.81422113577E+02  0.47000000000E+01 0. -1.
      -11    1    4    4    0    0  0.80780156886E+01  0.39913891494E+02  0.61281988707E+02  0.73578904664E+02  0.00000000000E+00 0.  1.
       12    1    4    4    0    0 -0.21037060989E+01  0.33575753020E+02 -0.24061095280E+02  0.41360525581E+02  0.00000000000E+00 0. -1.
       -5    1    5    5    0  504 -0.45108713441E+01  0.53588121498E+02 -0.31619786393E+02  0.62561454727E+02  0.47000000000E+01 0.  1.
        1    1    6    6  502    0  0.56533215701E+02 -0.30235670297E+02 -0.99934559551E+02  0.11873127822E+03  0.00000000000E+00 0. -1.
       -2    1    6    6    0  502 -0.30107652881E+01 -0.49854917578E+02 -0.16592878401E+02  0.52629850161E+02  0.00000000000E+00 0.  1.
</event>
<event>
12   0  0.1523332E-01  0.2183398E+03  0.7957747E-01  0.1141854E+00
        2   -1    0    0  502    0  0.00000000000E+00  0.00000000000E+00  0.89948556003E+03  0.89948556003E+03  0.00000000000E+00 0.  1.
       -2   -1    0    0    0  501  0.00000000000E+00  0.00000000000E+00 -0.53768258063E+02  0.53768258063E+02  0.00000000000E+00 0. -1.
        6    2    1    2  502    0  0.80949335266E+02  0.10492166425E+03  0.36473744323E+03  0.42478797369E+03  0.17277172683E+03 0.  0.
       24    2    3    3    0    0  0.11231089214E+03  0.99635632088E+02  0.22969775612E+03  0.28597408216E+03  0.80492986207E+02 0.  0.
       -6    2    1    2    0  501 -0.80949335266E+02 -0.10492166425E+03  0.48097985873E+03  0.52846584440E+03  0.17427901101E+03 0.  0.
      -24    2    5    5    0    0 -0.11789934990E+03 -0.50480502595E+02  0.30907328246E+03  0.34433788718E+03  0.81201901241E+02 0.  0.
        5    1    3    3  502    0 -0.31361556878E+02  0.52860321639E+01  0.13503968711E+03  0.13881389153E+03  0.47000000000E+01 0. -1.
        2    1    4    4  503    0  0.39439125144E+02 -0.80680314541E+01  0.57485000825E+02  0.70178793403E+02  0.00000000000E+00 0. -1.
       -1    1    4    4    0  503  0.72871767000E+02  0.10770366354E+03  0.17221275529E+03  0.21579528876E+03  0.00000000000E+00 0.  1.
       -5    1    5    5    0  501  0.36950014637E+02 -0.54441161656E+02  0.17190657627E+03  0.18412795722E+03  0.47000000000E+01 0.  1.
       13    1    6    6    0    0 -0.40710301497E+01 -0.11544398047E+02 -0.45802297509E+00  0.12249742764E+02  0.00000000000E+00 0. -1.
      -14    1    6    6    0    0 -0.11382831975E+03 -0.38936104549E+02  0.30953130544E+03  0.33208814442E+03  0.00000000000E+00 0.  1.
</event>
<event>
12   0  0.1523332E-01  0.1941964E+03  0.7957747E-01  0.1160806E+00
       -2   -1    0    0    0  501  0.00000000000E+00  0.00000000000E+00  0.12639102000E+03  0.12639102000E+03  0.00000000000E+00 0.  1.
        2   -1    0    0  502    0  0.00000000000E+00  0.00000000000E+00 -0.40521018116E+03  0.40521018116E+03  0.00000000000E+00 0. -1.
        6    2    1    2  502    0 -0.84596211629E+02  0.18980950181E+01 -0.27593377682E+03  0.33746779643E+03  0.17488551299E+03 0.  0.
       24    2    3    3    0    0 -0.25684519995E+01  0.41593040791E+02 -0.78918793308E+02  0.12034747081E+03  0.80738837040E+02 0.  0.
       -6    2    1    2    0  501  0.84596211629E+02 -0.18980950181E+01 -0.28853843413E+01  0.19413340473E+03  0.17469782941E+03 0.  0.
      -24    2    5    5    0    0  0.44962182308E+02 -0.39633652347E+02 -0.59520040454E+02  0.11523851998E+03  0.78389138498E+02 0.  0.
        5    1    3    3  502    0 -0.82027759630E+02 -0.39694945773E+02 -0.19701498351E+03  0.21712032562E+03  0.47000000000E+01 0. -1.
      -13    1    4    4    0    0 -0.19333319157E+02  0.17142595179E+02  0.91591174938E+01  0.27414142926E+02  0.00000000000E+00 0.  1.
       14    1    4    4    0    0  0.16764867157E+02  0.24450445612E+02 -0.88077910801E+02  0.92933327889E+02  0.00000000000E+00 0. -1.
       -5    1    5    5    0  501  0.39634029322E+02  0.37735557329E+02  0.56634656113E+02  0.78894884753E+02  0.47000000000E+01 0.  1.
        1    1    6    6  503    0  0.12385982035E+02  0.16411921734E+02 -0.44021060659E+02  0.48586186386E+02  0.00000000000E+00 0. -1.
       -2    1    6    6    0  503  0.32576200273E+02 -0.56045574081E+02 -0.15498979795E+02  0.66652333590E+02  0.00000000000E+00 0.  1.
</event>
<event>
12   0  0.1523332E-01  0.2144977E+03  0.7957747E-01  0.1144685E+00
       21   -1    0    0  501  503  0.00000000000E+00  0.00000000000E+00  0.22659277581E+03  0.22659277581E+03  0.00000000000E+00 0.  1.
       21   -1    0    0  503  504  0.00000000000E+00  0.00000000000E+00 -0.24511344507E+03  0.24511344507E+03  0.00000000000E+00 0.  1.
        6    2    1    2  501    0 -0.88198209172E+01 -0.12720778817E+03 -0.10757122891E+03  0.23996002106E+03  0.17248081577E+03 0.  0.
       24    2    3    3    0    0  0.35423459896E+02 -0.25242069167E+02 -0.88671938388E+02  0.12711610705E+03  0.80023799252E+02 0.  0.
       -6    2    1    2    0  504  0.88198209172E+01  0.12720778817E+03  0.89050559643E+02  0.23174619982E+03  0.17180421516E+03 0.  0.
      -24    2    5    5    0    0 -0.21175283726E+02  0.12953254176E+03  0.11486850860E+03  0.19182418497E+03  0.79841540909E+02 0.  0.
        5    1    3    3  501    0 -0.44243280813E+02 -0.10196571900E+03 -0.18899290519E+02  0.11284391402E+03  0.47000000000E+01 0. -1.
        2    1    4    4  502    0  0.43126475944E+02  0.18252676798E+02 -0.48284464282E+02  0.67263977199E+02  0.00000000000E+00 0. -1.
       -1    1    4    4    0  502 -0.77030160479E+01 -0.43494745965E+02 -0.40387474105E+02  0.59852129849E+02  0.00000000000E+00 0.  1.
       -5    1    5    5    0  504  0.29995104643E+02 -0.23247535883E+01 -0.25817948958E+02  0.39922014857E+02  0.47000000000E+01 0.  1.
       13    1    6    6    0    0 -0.27346932908E+02  0.11837773212E+03  0.60017200890E+02  0.13551090954E+03  0.00000000000E+00 0. -1.
      -14    1    6    6    0    0  0.61716491821E+01  0.11154809635E+02  0.54851307710E+02  0.56313275426E+02  0.00000000000E+00 0.  1.
</event>
<event>
12   0  0.1523332E-01  0.3350391E+03  0.7957747E-01  0.1077567E+00
       21   -1    0    0  504  503  0.00000000000E+00  0.00000000000E+00  0.66617618842E+03  0.66617618842E+03  0.00000000000E+00 0.  1.
       21   -1    0    0  501  504  0.00000000000E+00  0.00000000000E+00 -0.16880118208E+03  0.16880118208E+03  0.00000000000E+00 0. -1.
        6    2    1    2  501    0 -0.24207080337E+03 -0.15090837824E+03  0.21700847726E+03  0.39810603305E+03  0.17327470066E+03 0.  0.
       24    2    3    3    0    0 -0.24236994841E+03 -0.12925121835E+03  0.23452529987E+03  0.36985623418E+03  0.79639489842E+02 0.  0.
       -6    2    1    2    0  503  0.24207080337E+03  0.15090837824E+03  0.28036652908E+03  0.43687133744E+03  0.17572581593E+03 0.  0.
      -24    2    5    5    0    0  0.14032614616E+03  0.13340461721E+02  0.17087753269E+03  0.23367971051E+03  0.74415594535E+02 0.  0.
        5    1    3    3  501    0  0.29914503952E+00 -0.21657159885E+02 -0.17516822617E+02  0.28249798878E+02  0.47000000000E+01 0. -1.
        2    1    4    4  502    0 -0.95925201706E+02 -0.96222275850E+02  0.11148347676E+03  0.17575248585E+03  0.00000000000E+00 0. -1.
       -1    1    4    4    0  502 -0.14644474670E+03 -0.33028942501E+02  0.12304182312E+03  0.19410374833E+03  0.00000000000E+00 0.  1.
       -5    1    5    5    0  503  0.10174465720E+03  0.13756791652E+03  0.10948899638E+03  0.20319162693E+03  0.47000000000E+01 0.  1.
       13    1    6    6    0    0  0.10123581731E+03 -0.65610954507E+01  0.68802373440E+02  0.12257856774E+03  0.00000000000E+00 0. -1.
      -14    1    6    6    0    0  0.39090328858E+02  0.19901557171E+02  0.10207515925E+03  0.11110114277E+03  0.00000000000E+00 0.  1.
</event>
<event>
12   0  0.1523332E-01  0.1992840E+03  0.7957747E-01  0.1156569E+00
       -1   -1    0    0    0  501  0.00000000000E+00  0.00000000000E+00  0.43821695152E+02  0.43821695152E+02  0.00000000000E+00 0. -1.
        1   -1    0    0  502    0  0.00000000000E+00  0.00000000000E+00 -0.93025424092E+03  0.93025424092E+03  0.00000000000E+00 0.  1.
        6    2    1    2  502    0  0.71885885916E+02 -0.67996125962E+02 -0.36338085435E+03  0.41407461286E+03  0.17210777428E+03 0.  0.
       24    2    3    3    0    0  0.19798924340E+02 -0.69030351958E+02 -0.34016614611E+03  0.35684582755E+03  0.80428544587E+02 0.  0.
       -6    2    1    2    0  501 -0.71885885916E+02  0.67996125962E+02 -0.52305169142E+03  0.56000132321E+03  0.17386016325E+03 0.  0.
      -24    2    5    5    0    0 -0.87399835353E+02  0.10207928881E+03 -0.46422800653E+03  0.49011097681E+03  0.81499785991E+02 0.  0.
        5    1    3    3  502    0  0.52086961576E+02  0.10342259960E+01 -0.23214708245E+02  0.57228785314E+02  0.47000000000E+01 0. -1.
        2    1    4    4  503    0 -0.26247218308E+02 -0.52683203695E+02 -0.17809909657E+03  0.18757325134E+03  0.00000000000E+00 0. -1.
       -1    1    4    4    0  503  0.46046142648E+02 -0.16347148262E+02 -0.16206704954E+03  0.16927257621E+03  0.00000000000E+00 0.  1.
       -5    1    5    5    0  501  0.15513949437E+02 -0.34083162847E+02 -0.58823684887E+02  0.69890346404E+02  0.47000000000E+01 0.  1.
       13    1    6    6    0    0 -0.26043559580E+02  0.10569703129E+02 -0.26147255443E+02  0.38388339207E+02  0.00000000000E+00 0. -1.
      -14    1    6    6    0    0 -0.61356275773E+02  0.91509585680E+02 -0.43808075109E+03  0.45172263760E+03  0.00000000000E+00 0.  1.
</event>
<event>
12   0  0.1523332E-01  0.1880987E+03  0.7957747E-01  0.1166075E+00
        1   -1    0    0  502    0  0.00000000000E+00  0.00000000000E+00  0.70018593986E+03  0.70018593986E+03  0.00000000000E+00 0.  1.
       -1   -1    0    0    0  501  0.00000000000E+00  0.00000000000E+00 -0.70940221460E+02  0.70940221460E+02  0.00000000000E+00 0. -1.
        6    2    1    2  502    0 -0.59184493900E+02 -0.49898181479E+02  0.11032123858E+03  0.21986007960E+03  0.17370966032E+03 0.  0.
       24    2    3    3    0    0 -0.38395903799E+01  0.22754648566E+02  0.10080821679E+03  0.12791401040E+03  0.75280681437E+02 0.  0.
       -6    2    1    2    0  501  0.59184493900E+02  0.49898181479E+02  0.51892447982E+03  0.55126608171E+03  0.16917164142E+03 0.  0.
      -24    2    5    5    0    0  0.28418510393E+01  0.41780037539E+02  0.14572291090E+03  0.17371886783E+03  0.84790510237E+02 0.  0.
        5    1    3    3  502    0 -0.55344903520E+02 -0.72652830046E+02  0.95130217912E+01  0.91946069209E+02  0.47000000000E+01 0. -1.
        4    1    4    4  503    0  0.14564784996E+02  0.40385847072E+02  0.29241239812E+02  0.51944198053E+02  0.00000000000E+00 0. -1.
       -3    1    4    4    0  503 -0.18404375375E+02 -0.17631198505E+02  0.71566976978E+02  0.75969812343E+02  0.00000000000E+00 0.  1.
       -5    1    5    5    0  501  0.56342642861E+02  0.81181439400E+01  0.37320156892E+03  0.37754721388E+03  0.47000000000E+01 0.  1.
       11    1    6    6    0    0 -0.19382827539E+02  0.52066473165E+02  0.13680532932E+03  0.14765605223E+03  0.00000000000E+00 0. -1.
      -12    1    6    6    0    0  0.22224678578E+02 -0.10286435626E+02  0.89175815822E+01  0.26062815601E+02  0.00000000000E+00 0.  1.
</event>
<event>
12   0  0.1523332E-01  0.2304099E+03  0.7957747E-01  0.1133357E+00
       21   -1    0    0  504  503  0.00000000000E+00  0.00000000000E+00  0.23317528610E+03  0.23317528610E+03  0.00000000000E+00 0. -1.
       21   -1    0    0  501  504  0.00000000000E+00  0.00000000000E+00 -0.22827339052E+03  0.22827339052E+03  0.00000000000E+00 0.  1.
        6    2    1    2  501    0  0.14052274521E+03 -0.56803457955E+02  0.15582214807E+02  0.23079133462E+03  0.17334520461E+03 0.  0.
       24    2    3    3    0    0  0.61525206413E+02 -0.17584060827E+02  0.74979664035E+02  0.12435393883E+03  0.75811620909E+02 0.  0.
       -6    2    1    2    0  503 -0.14052274521E+03  0.56803457955E+02 -0.10680319224E+02  0.23065734200E+03  0.17353808066E+03 0.  0.
      -24    2    5    5    0    0 -0.16080380624E+03  0.11038059251E+02 -0.10718533613E+02  0.18037926909E+03  0.80262637023E+02 0.  0.
        5    1    3    3  501    0  0.78997538802E+02 -0.39219397127E+02 -0.59397449228E+02  0.10643739579E+03  0.47000000000E+01 0. -1.
      -11    1    4    4    0    0  0.25685070382E+02 -0.10138969432E+02 -0.11906724261E+02  0.30071442006E+02  0.00000000000E+00 0.  1.
       12    1    4    4    0    0  0.35840136031E+02 -0.74450913955E+01  0.86886388296E+02  0.94282496826E+02  0.00000000000E+00 0. -1.
       -5    1    5    5    0  503  0.20281061026E+02  0.45765398704E+02  0.38214388459E-01  0.50278072906E+02  0.47000000000E+01 0.  1.
        1    1    6    6  502    0 -0.98091941747E+02  0.22041220660E+02 -0.42579375766E+02  0.10918263454E+03  0.00000000000E+00 0. -1.
       -2    1    6    6    0  502 -0.62711864493E+02 -0.11003161409E+02  0.31860842153E+02  0.71196634555E+02  0.00000000000E+00 0.  1.
</event>
<event>
12   0  0.1523332E-01  0.1825892E+03  0.7957747E-01  0.1171028E+00
        2   -1    0    0  502    0  0.00000000000E+00  0.00000000000E+00  0.74128929732E+03  0.74128929732E+03  0.00000000000E+00 0.  1.
       -2   -1    0    0    0  501  0.00000000000E+00  0.00000000000E+00 -0.48188806330E+02  0.48188806330E+02  0.00000000000E+00 0. -1.
        6    2    1    2  502    0  0.56396712859E+02 -0.18676261329E+01  0.24365088588E+03  0.30415313551E+03  0.17308754549E+03 0.  0.
       24    2    3    3    0    0 -0.29895885010E-01  0.25407720997E+02  0.22197024643E+03  0.23766970252E+03  0.81058892274E+02 0.  0.
       -6    2    1    2    0  501 -0.56396712859E+02  0.18676261329E+01  0.44944960510E+03  0.48532496813E+03  0.17421624470E+03 0.  0.
      -24    2    5    5    0    0 -0.90884819944E+02  0.40387721807E+02  0.34178513868E+03  0.36579691857E+03  0.84256074242E+02 0.  0.
        5    1    3    3  502    0  0.56426608744E+02 -0.27275347130E+02  0.21680639452E+02  0.66483432993E+02  0.47000000000E+01 0. -1.
        4    1    4    4  503    0 -0.66422809377E+01  0.47269744950E+02  0.74769597141E+02  0.88707617149E+02  0.00000000000E+00 0. -1.
       -3    1    4    4    0  503  0.66123850527E+01 -0.21862023953E+02  0.14720064929E+03  0.14896208537E+03  0.00000000000E+00 0.  1.
       -5    1    5    5    0  501  0.34488107084E+02 -0.38520095674E+02  0.10766446643E+03  0.11952804956E+03  0.47000000000E+01 0.  1.
       11    1    6    6    0    0  0.89304717184E+00  0.36125710611E+02  0.67979387342E+02  0.76987411983E+02  0.00000000000E+00 0. -1.
      -12    1    6    6    0    0 -0.91777867115E+02  0.42620111958E+01  0.27380575134E+03  0.28880950659E+03  0.00000000000E+00 0.  1.
</event>
<event>
12   0  0.1523332E-01  0.3526895E+03  0.7957747E-01  0.1070341E+00
       21   -1    0    0  504  503  0.00000000000E+00  0.00000000000E+00  0.45254421268E+03  0.45254421268E+03  0.00000000000E+00 0.  1.
       21   -1    0    0  501  504  0.00000000000E+00  0.00000000000E+00 -0.64428284292E+03  0.64428284292E+03  0.00000000000E+00 0. -1.
        6    2    1    2  501    0 -0.53217452093E+02 -0.30320316489E+03 -0.51121083782E+03  0.62095689629E+03  0.17171688890E+03 0.  0.
       24    2    3    3    0    0 -0.98484032020E+02 -0.22211932435E+03 -0.33492322065E+03  0.42165043271E+03  0.81113653976E+02 0.  0.
       -6    2    1    2    0  503  0.53217452093E+02  0.30320316489E+03  0.31947220758E+03  0.47587015932E+03  0.17212106410E+03 0.  0.
      -24    2    5    5    0    0 -0.97525538098E+01  0.17881846290E+03  0.11335130189E+03  0.22698325027E+03  0.81250989427E+02 0.  0.
        5    1    3    3  501    0  0.45266579928E+02 -0.81083840537E+02 -0.17628761717E+03  0.19930646357E+03  0.47000000000E+01 0. -1.
        4    1    4    4  502    0 -0.29686983129E+02 -0.80921758949E+02 -0.59995120763E+02  0.10501934371E+03  0.00000000000E+00 0. -1.
       -3    1    4    4    0  502 -0.68797048891E+02 -0.14119756540E+03 -0.27492809989E+03  0.31663108900E+03  0.00000000000E+00 0.  1.
       -5    1    5    5    0  503  0.62970005903E+02  0.12438470199E+03  0.20612090569E+03  0.24888690904E+03  0.47000000000E+01 0.  1.
       11    1    6    6    0    0 -0.11530956197E+02  0.98035843446E+02  0.10753529454E+03  0.14597201486E+03  0.00000000000E+00 0. -1.
      -12    1    6    6    0    0  0.17784023871E+01  0.80782619456E+02  0.58160073523E+01  0.81011235411E+02  0.00000000000E+00 0.  1.
</event>
<event>
12   0  0.1523332E-01  0.1958786E+03  0.7957747E-01  0.1159390E+00
       21   -1    0    0  501  503  0.00000000000E+00  0.00000000000E+00  0.66177765746E+03  0.66177765746E+03  0.00000000000E+00 0. -1.
       21   -1    0    0  503  504  0.00000000000E+00  0.00000000000E+00 -0.63286937958E+02  0.63286937958E+02  0.00000000000E+00 0. -1.
        6    2    1    2  501    0  0.46489903997E+01  0.83864661988E+02  0.17699046310E+03  0.26027336617E+03  0.17135257940E+03 0.  0.
       24    2    3    3    0    0 -0.91588170112E-01  0.38524989047E+02  0.19242367359E+03  0.21191601912E+03  0.79983409712E+02 0.  0.
       -6    2    1    2    0  504 -0.46489903997E+01 -0.83864661988E+02  0.42150025640E+03  0.46479122925E+03  0.17695628274E+03 0.  0.
      -24    2    5    5    0    0 -0.55320833687E+02  0.23435526858E+00  0.20441463370E+03  0.22648777147E+03  0.80317610729E+02 0.  0.
        5    1    3    3  501    0  0.47405785698E+01  0.45339672941E+02 -0.15433210494E+02  0.48357347050E+02  0.47000000000E+01 0. -1.
        4    1    4    4  502    0  0.38317454817E+02  0.12709403657E+02  0.66946678624E+02  0.78176812827E+02  0.00000000000E+00 0. -1.
       -3    1    4    4    0  502 -0.38409042987E+02  0.25815585390E+02  0.12547699497E+03  0.13373920629E+03  0.00000000000E+00 0.  1.
       -5    1    5    5    0  504  0.50671843288E+02 -0.84099017257E+02  0.21708562270E+03  0.23830345777E+03  0.47000000000E+01 0.  1.
       11    1    6    6    0    0 -0.36855538709E+02 -0.34509015633E+02  0.15675517916E+03  0.16468572824E+03  0.00000000000E+00 0. -1.
      -12    1    6    6    0    0 -0.18465294979E+02  0.34743370902E+02  0.47659454544E+02  0.61802043232E+02  0.00000000000E+00 0.  1.
</event>
<event>
12   0  0.1523332E-01  0.1780954E+03  0.7957747E-01  0.1175213E+00
       -1   -1    0    0    0  501  0.00000000000E+00  0.00000000000E+00  0.48822271763E+03  0.48822271763E+03  0.00000000000E+00 0. -1.
        1   -1    0    0  502    0  0.00000000000E+00  0.00000000000E+00 -0.65263065926E+02  0.65263065926E+02  0.00000000000E+00 0.  1.
        6    2    1    2  502    0 -0.92472196187E+01  0.43584516563E+02  0.22881602210E+03  0.28930739395E+03  0.17133848099E+03 0.  0.
       24    2    3    3    0    0  0.42239224843E+02 -0.22539409966E+02  0.12289951767E+03  0.15416441953E+03  0.79813530737E+02 0.  0.
       -6    2    1    2    0  501  0.92472196187E+01 -0.43584516563E+02  0.19414362960E+03  0.26417838961E+03  0.17353198975E+03 0.  0.
      -24    2    5    5    0    0 -0.19096474431E+02  0.29425225328E+02  0.15049141711E+03  0.17439312880E+03  0.80837970820E+02 0.  0.
        5    1    3    3  502    0 -0.51486444462E+02  0.66123926529E+02  0.10591650443E+03  0.13514297441E+03  0.47000000000E+01 0. -1.
        4    1    4    4  503    0  0.26189665384E+02 -0.45936238354E+02  0.11184438613E+03  0.12371419998E+03  0.00000000000E+00 0. -1.
       -3    1    4    4    0  503  0.16049559459E+02  0.23396828388E+02  0.11055131539E+02  0.30450219552E+02  0.00000000000E+00 0.  1.
       -5    1    5    5    0  501  0.28343694049E+02 -0.73009741891E+02  0.43652212486E+02  0.89785260808E+02  0.47000000000E+01 0.  1.
       11    1    6    6    0    0  0.10681510017E+02 -0.19369304613E+02  0.83245879763E+02  0.86134436290E+02  0.00000000000E+00 0. -1.
      -12    1    6    6    0    0 -0.29777984448E+02  0.48794529941E+02  0.67245537350E+02  0.88258692509E+02  0.00000000000E+00 0.  1.
</event>
<event>
12   0  0.1523332E-01  0.2402338E+03  0.7957747E-01  0.1126851E+00
       21   -1    0    0  501  503  0.00000000000E+00  0.00000000000E+00  0.26344540664E+03  0.26344540664E+03  0.00000000000E+00 0. -1.
       21   -1    0    0  503  504  0.00000000000E+00  0.00000000000E+00 -0.39016500137E+03  0.39016500137E+03  0.00000000000E+00 0. -1.
        6    2    1    2  501    0  0.16643503186E+03  0.13197320832E+02  0.15309131611E+03  0.28486703479E+03  0.17273531003E+03 0.  0.
       24    2    3    3    0    0  0.67050876258E+02 -0.89046065228E+01  0.15036297450E+03  0.18290998782E+03  0.79195501903E+02 0.  0.
       -6    2    1    2    0  504 -0.16643503186E+03 -0.13197320832E+02 -0.27981091083E+03  0.36874337322E+03  0.17263470209E+03 0.  0.
      -24    2    5    5    0    0 -0.17155480243E+03  0.28766340598E+02 -0.19197835854E+03  0.27115337284E+03  0.80061906478E+02 0.  0.
        5    1    3    3  501    0  0.99384155605E+02  0.22101927355E+02  0.27283416136E+01  0.10195704697E+03  0.47000000000E+01 0. -1.
      -13    1    4    4    0    0 -0.10241630127E+02  0.12199787917E+02  0.46030154841E+01  0.16580517616E+02  0.00000000000E+00 0.  1.
       14    1    4    4    0    0  0.77292506385E+02 -0.21104394440E+02  0.14575995901E+03  0.16632947021E+03  0.00000000000E+00 0. -1.
       -5    1    5    5    0  504  0.51197705693E+01 -0.41963661429E+02 -0.87832552296E+02  0.97590000379E+02  0.47000000000E+01 0.  1.
        3    1    6    6  502    0 -0.10343219012E+03  0.55661502893E+02 -0.10607551659E+03  0.15826697721E+03  0.00000000000E+00 0. -1.
       -4    1    6    6    0  502 -0.68122612316E+02 -0.26895162295E+02 -0.85902841950E+02  0.11288639563E+03  0.00000000000E+00 0.  1.
</event>
<event>
12   0  0.1523332E-01  0.2295202E+03  0.7957747E-01  0.1133964E+00
       21   -1    0    0  504  503  0.00000000000E+00  0.00000000000E+00  0.16697709674E+03  0.16697709674E+03  0.00000000000E+00 0.  1.
       21   -1    0    0  501  504  0.00000000000E+00  0.00000000000E+00 -0.38963405669E+03  0.38963405669E+03  0.00000000000E+00 0.  1.
        6    2    1    2  501    0 -0.13590691305E+03 -0.62466987275E+02 -0.23425989694E+03  0.32679785217E+03  0.17189043996E+03 0.  0.
       24    2    3    3    0    0 -0.16721398922E+03 -0.64667359728E+02 -0.20059767029E+03  0.28053544669E+03  0.79487897947E+02 0.  0.
       -6    2    1    2    0  503  0.13590691305E+03  0.62466987275E+02  0.11602936991E+02  0.22981330126E+03  0.17408822986E+03 0.  0.
      -24    2    5    5    0    0  0.85407628229E+02  0.78553443059E+02 -0.49532236360E+02  0.14876670202E+03  0.78822476594E+02 0.  0.
        5    1    3    3  501    0  0.31307076169E+02  0.22003724523E+01 -0.33662226653E+02  0.46262405476E+02  0.47000000000E+01 0. -1.
      -11    1    4    4    0    0 -0.12267567835E+03 -0.49403881133E+02 -0.19127067756E+03  0.23253932489E+03  0.00000000000E+00 0.  1.
       12    1    4    4    0    0 -0.44538310870E+02 -0.15263478594E+02 -0.93269927314E+01  0.47996121795E+02  0.00000000000E+00 0. -1.
       -5    1    5    5    0  503  0.50499284818E+02 -0.16086455784E+02  0.61135173351E+02  0.81046599234E+02  0.47000000000E+01 0.  1.
        3    1    6    6  502    0  0.86897224314E+01  0.60399963084E+02 -0.15923195328E+02  0.63065164441E+02  0.00000000000E+00 0. -1.
       -4    1    6    6    0  502  0.76717905797E+02  0.18153479975E+02 -0.33609041032E+02  0.85701537584E+02  0.00000000000E+00 0.  1.
</event>
<event>
12   0  0.1523332E-01  0.1768856E+03  0.7957747E-01  0.1176363E+00
       21   -1    0    0  504  503  0.00000000000E+00  0.00000000000E+00  0.57752020958E+03  0.57752020958E+03  0.00000000000E+00 0.  1.
       21   -1    0    0  501  504  0.00000000000E+00  0.00000000000E+00 -0.67132615717E+02  0.67132615717E+02  0.00000000000E+00 0. -1.
        6    2    1    2  501    0 -0.86777383747E+01 -0.32933893571E+02  0.11342727917E+03  0.21012919968E+03  0.17357588660E+03 0.  0.
       24    2    3    3    0    0  0.40751591063E+02 -0.64672784795E+02  0.95400802453E+02  0.14850404502E+03  0.84314156643E+02 0.  0.
       -6    2    1    2    0  503  0.86777383747E+01  0.32933893571E+02  0.39696031469E+03  0.43452362561E+03  0.17341668111E+03 0.  0.
      -24    2    5    5    0    0  0.20651563834E+02  0.55989676101E+01  0.85265753433E+02  0.12136845610E+03  0.83679256096E+02 0.  0.
        5    1    3    3  501    0 -0.49429329438E+02  0.31738891223E+02  0.18026476715E+02  0.61625154665E+02  0.47000000000E+01 0. -1.
        2    1    4    4  502    0  0.31741963353E+00 -0.70562437425E+02  0.45296159449E+02  0.83850464468E+02  0.00000000000E+00 0. -1.
       -1    1    4    4    0  502  0.40434171430E+02  0.58896526304E+01  0.50104643004E+02  0.64653580549E+02  0.00000000000E+00 0.  1.
       -5    1    5    5    0  503 -0.11973825459E+02  0.27334925961E+02  0.31169456126E+03  0.31315516951E+03  0.47000000000E+01 0.  1.
       11    1    6    6    0    0  0.32579206777E+02 -0.31035994227E+02  0.30309208509E+02  0.54252057770E+02  0.00000000000E+00 0. -1.
      -12    1    6    6    0    0 -0.11927642943E+02  0.36634961837E+02  0.54956544924E+02  0.67116398331E+02  0.00000000000E+00 0.  1.
</event>
<event>
12   0  0.1523332E-01  0.1832045E+03  0.7957747E-01  0.1170466E+00
       21   -1    0    0  501  503  0.00000000000E+00  0.00000000000E+00  0.92134232111E+02  0.92134232111E+02  0.00000000000E+00 0.  1.
       21   -1    0    0  503  504  0.00000000000E+00  0.00000000000E+00 -0.37040624816E+03  0.37040624816E+03  0.00000000000E+00 0.  1.
        6    2    1    2  501    0  0.52879522226E+02 -0.23009384541E+02 -0.10504527054E+03  0.21040683083E+03  0.17294753525E+03 0.  0.
       24    2    3    3    0    0  0.21928037721E+02  0.46358809506E+02 -0.12923454677E+02  0.90914321877E+02  0.73948767295E+02 0.  0.
       -6    2    1    2    0  504 -0.52879522226E+02  0.23009384541E+02 -0.17322674551E+03  0.25213364944E+03  0.17389133438E+03 0.  0.
      -24    2    5    5    0    0 -0.43001999789E+02  0.70490688519E+02 -0.62339432023E+02  0.13101335399E+03  0.80375275960E+02 0.  0.
        5    1    3    3  501    0  0.30951484505E+02 -0.69368194046E+02 -0.92121815862E+02  0.11949250895E+03  0.47000000000E+01 0. -1.
        2    1    4    4  502    0 -0.22551268121E+02  0.29354000517E+02  0.95943561350E+01  0.38239622250E+02  0.00000000000E+00 0. -1.
       -1    1    4    4    0  502  0.44479305842E+02  0.17004808989E+02 -0.22517810812E+02  0.52674699626E+02  0.00000000000E+00 0.  1.
       -5    1    5    5    0  504 -0.98775224371E+01 -0.47481303978E+02 -0.11088731348E+03  0.12112029544E+03  0.47000000000E+01 0.  1.
       11    1    6    6    0    0 -0.36320023858E+01  0.27844492122E+02 -0.67139117632E+02  0.72774777906E+02  0.00000000000E+00 0. -1.
      -12    1    6    6    0    0 -0.39369997403E+02  0.42646196397E+02  0.47996856087E+01  0.58238576086E+02  0.00000000000E+00 0.  1.
</event>
<event>
12   0  0.1523332E-01  0.1773733E+03  0.7957747E-01  0.1175898E+00
       21   -1    0    0  504  503  0.00000000000E+00  0.00000000000E+00  0.88220648582E+03  0.88220648582E+03  0.00000000000E+00 0.  1.
       21   -1    0    0  501  504  0.00000000000E+00  0.00000000000E+00 -0.35655000475E+02  0.35655000475E+02  0.00000000000E+00 0. -1.
        6    2    1    2  501    0  0.34099811820E+02  0.13697288817E+02  0.40959503514E+03  0.44627669347E+03  0.17333315157E+03 0.  0.
       24    2    3    3    0    0 -0.87877165082E+01  0.59717617424E+02  0.15946886853E+03  0.18831855742E+03  0.79938359038E+02 0.  0.
       -6    2    1    2    0  503 -0.34099811820E+02 -0.13697288817E+02  0.43695645021E+03  0.47158479283E+03  0.17352482406E+03 0.  0.
      -24    2    5    5    0    0  0.17387620749E+02 -0.18738974767E+02  0.98812307448E+02  0.12947380851E+03  0.79662516005E+02 0.  0.
        5    1    3    3  501    0  0.42887528328E+02 -0.46020328607E+02  0.25012616661E+03  0.25795813605E+03  0.47000000000E+01 0. -1.
        4    1    4    4  502    0 -0.36918361671E+02  0.58584152088E+02  0.91494403397E+02  0.11474447332E+03  0.00000000000E+00 0. -1.
       -3    1    4    4    0  502  0.28130645163E+02  0.11334653362E+01  0.67974465130E+02  0.73574084097E+02  0.00000000000E+00 0.  1.
       -5    1    5    5    0  503 -0.51487432570E+02  0.50416859501E+01  0.33814414276E+03  0.34211098432E+03  0.47000000000E+01 0.  1.
       11    1    6    6    0    0 -0.25120251662E+02 -0.25254058411E+02  0.67349719548E+02  0.76189101800E+02  0.00000000000E+00 0. -1.
      -12    1    6    6    0    0  0.42507872412E+02  0.65150836440E+01  0.31462587900E+02  0.53284706710E+02  0.00000000000E+00 0.  1.
</event>
<event>
12   0  0.1523332E-01  0.2076154E+03  0.7957747E-01  0.1149923E+00
       21   -1    0    0  501  503  0.00000000000E+00  0.00000000000E+00  0.86908710629E+02  0.86908710629E+02  0.00000000000E+00 0. -1.
       21   -1    0    0  503  504  0.00000000000E+00  0.00000000000E+00 -0.49877849124E+03  0.49877849124E+03  0.00000000000E+00 0.  1.
        6    2    1    2  501    0 -0.10869161745E+03 -0.25162118708E+02 -0.16911669712E+03  0.26777716769E+03  0.17509184552E+03 0.  0.
       24    2    3    3    0    0 -0.14778662040E+03 -0.30202464390E+02 -0.13888862404E+03  0.21788076759E+03  0.73681103250E+02 0.  0.
       -6    2    1    2    0  504  0.10869161745E+03  0.25162118708E+02 -0.24275308349E+03  0.31791003418E+03  0.17230998336E+03 0.  0.
      -24    2    5    5    0    0  0.76011180140E+02  0.47698915921E+02 -0.66772108543E+02  0.13744587775E+03  0.79874706544E+02 0.  0.
        5    1    3    3  501    0  0.39095002949E+02  0.50403456818E+01 -0.30228073080E+02  0.49896400094E+02  0.47000000000E+01 0. -1.
        4    1    4    4  502    0 -0.66053390928E+02  0.19470489403E+02 -0.80022356640E+02  0.10557332984E+03  0.00000000000E+00 0. -1.
       -3    1    4    4    0  502 -0.81733229469E+02 -0.49672953792E+02 -0.58866267397E+02  0.11230743775E+03  0.00000000000E+00 0.  1.
       -5    1    5    5    0  504  0.32680437308E+02 -0.22536797213E+02 -0.17598097495E+03  0.18046415643E+03  0.47000000000E+01 0.  1.
       11    1    6    6    0    0 -0.84710661788E+01  0.16428311010E+02  0.82234834060E+01  0.20230522588E+02  0.00000000000E+00 0. -1.
      -12    1    6    6    0    0  0.84482246319E+02  0.31270604911E+02 -0.74995591949E+02  0.11721535516E+03  0.00000000000E+00 0.  1.
</event>
<event>
12   0  0.1523332E-01  0.2534025E+03  0.7957747E-01  0.1118642E+00
        2   -1    0    0  502    0  0.00000000000E+00  0.00000000000E+00  0.18132593109E+04  0.18132593109E+04  0.00000000000E+00 0.  1.
       -2   -1    0    0    0  501  0.00000000000E+00  0.00000000000E+00 -0.37028540773E+02  0.37028540773E+02  0.00000000000E+00 0. -1.
        6    2    1    2  502    0 -0.16545261766E+03 -0.81927273283E+02  0.69390834154E+03  0.73863110221E+03  0.17314869879E+03 0.  0.
       24    2    3    3    0    0 -0.13837110251E+03 -0.12380261610E+03  0.58031177094E+03  0.61448109757E+03  0.79697038952E+02 0.  0.
       -6    2    1    2    0  501  0.16545261766E+03  0.81927273283E+02  0.10823224286E+04  0.11116567495E+04  0.17398920198E+03 0.  0.
      -24    2    5    5    0    0  0.10515071732E+03  0.10211795300E+02  0.36866044928E+03  0.39185473525E+03  0.80490077361E+02 0.  0.
        5    1    3    3  502    0 -0.27081515151E+02  0.41875342822E+02  0.11359657060E+03  0.12415000463E+03  0.47000000000E+01 0. -1.
        4    1    4    4  503    0 -0.51873779156E+02 -0.56974702084E+02  0.13023437145E+03  0.15132084175E+03  0.00000000000E+00 0. -1.
       -3    1    4    4    0  503 -0.86497323357E+02 -0.66827914021E+02  0.45007739949E+03  0.46316025582E+03  0.00000000000E+00 0.  1.
       -5    1    5    5    0  501  0.60301900346E+02  0.71715477983E+02  0.71366197932E+03  0.71980201423E+03  0.47000000000E+01 0.  1.
       13    1    6    6    0    0  0.28683930753E+02  0.39643528032E+02  0.10682483350E+03  0.11749860531E+03  0.00000000000E+00 0. -1.
      -14    1    6    6    0    0  0.76466786564E+02 -0.29431732732E+02  0.26183561579E+03  0.27435612994E+03  0.00000000000E+00 0.  1.
</event>
<event>
12   0  0.1523332E-01  0.1991543E+03  0.7957747E-01  0.1156676E+00
       21   -1    0    0  504  503  0.00000000000E+00  0.00000000000E+00  0.50457858878E+02  0.50457858878E+02  0.00000000000E+00 0. -1.
       21   -1    0    0  501  504  0.00000000000E+00  0.00000000000E+00 -0.11986355876E+04  0.11986355876E+04  0.00000000000E+00 0.  1.
        6    2    1    2  501    0  0.58352033582E+02 -0.58382596896E+02 -0.94641006706E+03  0.96559281574E+03  0.17281198842E+03 0.  0.
       24    2    3    3    0    0 -0.30402985231E+02 -0.37774996025E+01 -0.46205444289E+03  0.47013178732E+03  0.81184840014E+02 0.  0.
       -6    2    1    2    0  503 -0.58352033582E+02  0.58382596896E+02 -0.20176766171E+03  0.28350063078E+03  0.18124274026E+03 0.  0.
      -24    2    5    5    0    0 -0.11108227084E+03  0.28985265969E+02 -0.13961735892E+03  0.19672833610E+03  0.77650594160E+02 0.  0.
        5    1    3    3  501    0  0.88755018813E+02 -0.54605097294E+02 -0.48435562417E+03  0.49546102842E+03  0.47000000000E+01 0. -1.
        4    1    4    4  502    0 -0.45312374697E+01 -0.31057239672E+02 -0.75647933095E+02  0.81900513006E+02  0.00000000000E+00 0. -1.
       -3    1    4    4    0  502 -0.25871747761E+02  0.27279740069E+02 -0.38640650979E+03  0.38823127432E+03  0.00000000000E+00 0.  1.
       -5    1    5    5    0  503  0.52730237263E+02  0.29397330927E+02 -0.62150302794E+02  0.86772294684E+02  0.47000000000E+01 0.  1.
       11    1    6    6    0    0 -0.24035755123E+01 -0.17797486890E+02 -0.77502850269E+01  0.19560026401E+02  0.00000000000E+00 0. -1.
      -12    1    6    6    0    0 -0.10867869533E+03  0.46782752859E+02 -0.13186707389E+03  0.17716830970E+03  0.00000000000E+00 0.  1.
</event>
<event>
12   0  0.1523332E-01  0.1797308E+03  0.7957747E-01  0.1173675E+00
       21   -1    0    0  501  503  0.00000000000E+00  0.00000000000E+00  0.19929919205E+03  0.19929919205E+03  0.00000000000E+00 0.  1.
       21   -1    0    0  503  504  0.00000000000E+00  0.00000000000E+00 -0.15787215188E+03  0.15787215188E+03  0.00000000000E+00 0.  1.
        6    2    1    2  501    0 -0.32603701489E+02 -0.45437882765E+01  0.34952404093E+02  0.18309784207E+03  0.17669041247E+03 0.  0.
       24    2    3    3    0    0 -0.85779245119E+02  0.21103797291E+02  0.70190910429E+01  0.11761656946E+03  0.77336541286E+02 0.  0.
       -6    2    1    2    0  504  0.32603701489E+02  0.45437882765E+01  0.64746360835E+01  0.17407350186E+03  0.17080988195E+03 0.  0.
      -24    2    5    5    0    0 -0.73787095811E+01 -0.56980923969E+02  0.18420203752E+02  0.99584106645E+02  0.79223855868E+02 0.  0.
        5    1    3    3  501    0  0.53175543630E+02 -0.25647585567E+02  0.27933313051E+02  0.65481272619E+02  0.47000000000E+01 0. -1.
        2    1    4    4  502    0 -0.62335336182E+02  0.47035413096E+02  0.19516574144E+02  0.80491744225E+02  0.00000000000E+00 0. -1.
       -1    1    4    4    0  502 -0.23443908937E+02 -0.25931615806E+02 -0.12497483101E+02  0.37124825231E+02  0.00000000000E+00 0.  1.
       -5    1    5    5    0  504  0.39982411070E+02  0.61524712246E+02 -0.11945567669E+02  0.74489395210E+02  0.47000000000E+01 0.  1.
       13    1    6    6    0    0  0.63760449896E+01 -0.60754586013E+01  0.41208880646E+02  0.42139494433E+02  0.00000000000E+00 0. -1.
      -14    1    6    6    0    0 -0.13754754571E+02 -0.50905465368E+02 -0.22788676894E+02  0.57444612212E+02  0.00000000000E+00 0.  1.
</event>
<event>
12   0  0.1523332E-01  0.2115455E+03  0.7957747E-01  0.1146905E+00
       21   -1    0    0  501  503  0.00000000000E+00  0.00000000000E+00  0.89299505614E+02  0.89299505614E+02  0.00000000000E+00 0. -1.
       21   -1    0    0  503  504  0.00000000000E+00  0.00000000000E+00 -0.50101628587E+03  0.50101628587E+03  0.00000000000E+00 0.  1.
        6    2    1    2  501    0  0.62443682451E+02  0.10328238665E+03 -0.20731779595E+03  0.29619616674E+03  0.17373841199E+03 0.  0.
       24    2    3    3    0    0  0.10669726303E+03  0.74696884658E+02 -0.12572206340E+03  0.19895695711E+03  0.82546369039E+02 0.  0.
       -6    2    1    2    0  504 -0.62443682451E+02 -0.10328238665E+03 -0.20439898430E+03  0.29411962474E+03  0.17366906462E+03 0.  0.
      -24    2    5    5    0    0 -0.92818085510E+02 -0.56046176374E+02 -0.78771102838E+02  0.15643041484E+03  0.80679719644E+02 0.  0.
        5    1    3    3  501    0 -0.44253580580E+02  0.28585501989E+02 -0.81595732552E+02  0.97239209626E+02  0.47000000000E+01 0. -1.
        4    1    4    4  502    0  0.82156260559E+02  0.39335974329E+02 -0.33264924761E+02  0.96971775506E+02  0.00000000000E+00 0. -1.
       -3    1    4    4    0  502  0.24541002472E+02  0.35360910329E+02 -0.92457138641E+02  0.10198518161E+03  0.00000000000E+00 0.  1.
       -5    1    5    5    0  504  0.30374403059E+02 -0.47236210273E+02 -0.12562788146E+03  0.13768920990E+03  0.47000000000E+01 0.  1.
       11    1    6    6    0    0  0.40948524724E+01 -0.29255605382E+02 -0.14250774497E+01  0.29575143428E+02  0.00000000000E+00 0. -1.
      -12    1    6    6    0    0 -0.96912937983E+02 -0.26790570992E+02 -0.77346025389E+02  0.12685527142E+03  0.00000000000E+00 0.  1.
</event>
<event>
12   0  0.1523332E-01  0.2661806E+03  0.7957747E-01  0.1111181E+00
       21   -1    0    0  501  503  0.00000000000E+00  0.00000000000E+00  0.55296331352E+03  0.55296331352E+03  0.00000000000E+00 0. -1.
       21   -1    0    0  503  504  0.00000000000E+00  0.00000000000E+00 -0.13448518816E+03  0.13448518816E+03  0.00000000000E+00 0.  1.
        6    2    1    2  501    0 -0.10639886818E+02 -0.20159500995E+03  0.28649345533E+03  0.39106342517E+03  0.17348875275E+03 0.  0.
       24    2    3    3    0    0  0.38207725487E+01 -0.18203923311E+02  0.96768900251E+02  0.12675508605E+03  0.79728606265E+02 0.  0.
       -6    2    1    2    0  504  0.10639886818E+02  0.20159500995E+03  0.13198467003E+03  0.29638507651E+03  0.17225099486E+03 0.  0.
      -24    2    5    5    0    0  0.44719618633E+02  0.42582933068E+02  0.65912152511E+02  0.12078913041E+03  0.80202566657E+02 0.  0.
        5    1    3    3  501    0 -0.14460659367E+02 -0.18339108664E+03  0.18972455508E+03  0.26430833912E+03  0.47000000000E+01 0. -1.
        2    1    4    4  502    0 -0.33899196953E+02 -0.12657785904E+02  0.73934369368E+02  0.82314434165E+02  0.00000000000E+00 0. -1.
       -1    1    4    4    0  502  0.37719969501E+02 -0.55461374070E+01  0.22834530883E+02  0.44440651885E+02  0.00000000000E+00 0.  1.
       -5    1    5    5    0  504 -0.34079731815E+02  0.15901207688E+03  0.66072517520E+02  0.17559594610E+03  0.47000000000E+01 0.  1.
       11    1    6    6    0    0  0.53880472352E+02  0.35591469945E+02  0.12026267230E+02  0.65684770969E+02  0.00000000000E+00 0. -1.
      -12    1    6    6    0    0 -0.91608537190E+01  0.69914631227E+01  0.53885885280E+02  0.55104359446E+02  0.00000000000E+00 0.  1.
</event>
<event>
12   0  0.1523332E-01  0.3457620E+03  0.7957747E-01  0.1073122E+00
       -1   -1    0    0    0  501  0.00000000000E+00  0.00000000000E+00  0.45166062181E+03  0.45166062181E+03  0.00000000000E+00 0.  1.
        1   -1    0    0  502    0  0.00000000000E+00  0.00000000000E+00 -0.42052213955E+03  0.42052213955E+03  0.00000000000E+00 0. -1.
        6    2    1    2  502    0 -0.21446985243E+02  0.29852679905E+03  0.28104796139E+03  0.44596849731E+03  0.17413133281E+03 0.  0.
       24    2    3    3    0    0 -0.67515242425E+02  0.11713346193E+03  0.15106094591E+03  0.21805504606E+03  0.80312127769E+02 0.  0.
       -6    2    1    2    0  501  0.21446985243E+02 -0.29852679905E+03 -0.24990947913E+03  0.42621426404E+03  0.17212096963E+03 0.  0.
      -24    2    5    5    0    0  0.75995729346E+02 -0.21327281306E+03 -0.14795095411E+03  0.28247339152E+03  0.81492873455E+02 0.  0.
        5    1    3    3  502    0  0.46068257182E+02  0.18139333711E+03  0.12998701547E+03  0.22791345125E+03  0.47000000000E+01 0. -1.
        2    1    4    4  503    0 -0.17230354889E+02  0.16656361814E+02  0.83675550010E+02  0.87039744876E+02  0.00000000000E+00 0. -1.
       -1    1    4    4    0  503 -0.50284887536E+02  0.10047710012E+03  0.67385395905E+02  0.13101530118E+03  0.00000000000E+00 0.  1.
       -5    1    5    5    0  501 -0.54548744102E+02 -0.85253985991E+02 -0.10195852502E+03  0.14374087253E+03  0.47000000000E+01 0.  1.
       11    1    6    6    0    0  0.82400408902E+01 -0.94850279771E+02 -0.24105982164E+02  0.98211874142E+02  0.00000000000E+00 0. -1.
      -12    1    6    6    0    0  0.67755688456E+02 -0.11842253329E+03 -0.12384497195E+03  0.18426151738E+03  0.00000000000E+00 0.  1.
</event>
<event>
12   0  0.1523332E-01  0.2024338E+03  0.7957747E-01  0.1154016E+00
       -2   -1    0    0    0  501  0.00000000000E+00  0.00000000000E+00  0.10275868275E+03  0.10275868275E+03  0.00000000000E+00 0. -1.
        2   -1    0    0  502    0  0.00000000000E+00  0.00000000000E+00 -0.40416515138E+03  0.40416515138E+03  0.00000000000E+00 0.  1.
        6    2    1    2  502    0 -0.35732384289E+02  0.10509554783E+03 -0.12001474014E+03  0.23348274236E+03  0.16669965708E+03 0.  0.
       24    2    3    3    0    0 -0.58395254964E+01  0.41363440069E+01 -0.62063108782E+01  0.78367325936E+02  0.77792737964E+02 0.  0.
       -6    2    1    2    0  501  0.35732384289E+02 -0.10509554783E+03 -0.18139172849E+03  0.27344109176E+03  0.17188715496E+03 0.  0.
      -24    2    5    5    0    0 -0.13845586980E+02 -0.61872203113E+02 -0.27571764151E+02  0.10608248221E+03  0.80457573018E+02 0.  0.
        5    1    3    3  502    0 -0.29892858792E+02  0.10095920382E+03 -0.11380842926E+03  0.15511541643E+03  0.47000000000E+01 0. -1.
      -11    1    4    4    0    0  0.80204583193E+01  0.36874262270E+02  0.10379324468E+02  0.39137825004E+02  0.00000000000E+00 0.  1.
       12    1    4    4    0    0 -0.13859983816E+02 -0.32737918263E+02 -0.16585635346E+02  0.39229500932E+02  0.00000000000E+00 0. -1.
       -5    1    5    5    0  501  0.49577971269E+02 -0.43223344715E+02 -0.15381996434E+03  0.16735860956E+03  0.47000000000E+01 0.  1.
        3    1    6    6  503    0  0.28185069095E+02 -0.35467488432E+02  0.66555941045E+01  0.45789057519E+02  0.00000000000E+00 0. -1.
       -4    1    6    6    0  503 -0.42030656075E+02 -0.26404714681E+02 -0.34227358255E+02  0.60293424688E+02  0.00000000000E+00 0.  1.
</event>
<event>
12   0  0.1523332E-01  0.2644025E+03  0.7957747E-01  0.1112191E+00
       21   -1    0    0  504  503  0.00000000000E+00  0.00000000000E+00  0.23676645727E+03  0.23676645727E+03  0.00000000000E+00 0.  1.
       21   -1    0    0  501  504  0.00000000000E+00  0.00000000000E+00 -0.32081316962E+03  0.32081316962E+03  0.00000000000E+00 0. -1.
        6    2    1    2  501    0  0.19902376821E+03  0.24677059380E+02  0.41598911466E+02  0.26765489674E+03  0.17230570722E+03 0.  0.
       24    2    3    3    0    0  0.72014773788E+02 -0.61462814300E+02  0.18494008160E+02  0.11238967508E+03  0.57668063437E+02 0.  0.
       -6    2    1    2    0  503 -0.19902376821E+03 -0.24677059380E+02 -0.12564562382E+03  0.28992473014E+03  0.16748166703E+03 0.  0.
      -24    2    5    5    0    0 -0.20291234838E+03 -0.44723002527E+02 -0.74889482977E+02  0.23501355892E+03  0.80307970557E+02 0.  0.
        5    1    3    3  501    0  0.12700899442E+03  0.86139873679E+02  0.23104903306E+02  0.15526522166E+03  0.47000000000E+01 0. -1.
      -13    1    4    4    0    0  0.58562678370E+02 -0.54992850974E+02 -0.92686838327E+01  0.80868470099E+02  0.00000000000E+00 0.  1.
       14    1    4    4    0    0  0.13452095418E+02 -0.64699633262E+01  0.27762691993E+02  0.31521204978E+02  0.00000000000E+00 0. -1.
       -5    1    5    5    0  503  0.38885801672E+01  0.20045943147E+02 -0.50756140840E+02  0.54911171225E+02  0.47000000000E+01 0.  1.
        3    1    6    6  502    0 -0.12950747379E+03  0.11887384227E+02 -0.44909134076E+02  0.13758752122E+03  0.00000000000E+00 0. -1.
       -4    1    6    6    0  502 -0.73404874589E+02 -0.56610386754E+02 -0.29980348902E+02  0.97426037701E+02  0.00000000000E+00 0.  1.
</event>
<event>
12   0  0.1523332E-01  0.1910312E+03  0.7957747E-01  0.1163514E+00
        2   -1    0    0  502    0  0.00000000000E+00  0.00000000000E+00  0.76778177298E+03  0.76778177298E+03  0.00000000000E+00 0. -1.
       -2   -1    0    0    0  501  0.00000000000E+00  0.00000000000E+00 -0.47618675868E+02  0.47618675868E+02  0.00000000000E+00 0.  1.
        6    2    1    2  502    0  0.71309115955E+02 -0.35425765927E+02  0.34288890984E+03  0.39260592807E+03  0.17385808971E+03 0.  0.
       24    2    3    3    0    0 -0.28714580776E+02 -0.20718025506E+02  0.15770587942E+03  0.18157061754E+03  0.82722312716E+02 0.  0.
       -6    2    1    2    0  501 -0.71309115955E+02  0.35425765927E+02  0.37727418728E+03  0.42279452078E+03  0.17343419359E+03 0.  0.
      -24    2    5    5    0    0 -0.63645834772E+02 -0.47556895266E+01  0.36608913130E+03  0.38012754622E+03  0.80014314182E+02 0.  0.
        5    1    3    3  502    0  0.10002369673E+03 -0.14707740422E+02  0.18518303042E+03  0.21103531053E+03  0.47000000000E+01 0. -1.
        2    1    4    4  503    0 -0.51068347065E+02 -0.16677675340E+02  0.56969666399E+02  0.78304941200E+02  0.00000000000E+00 0. -1.
       -1    1    4    4    0  503  0.22353766289E+02 -0.40403501652E+01  0.10073621302E+03  0.10326567634E+03  0.00000000000E+00 0.  1.
       -5    1    5    5    0  501 -0.76632811836E+01  0.40181455454E+02  0.11185055982E+02  0.42666974561E+02  0.47000000000E+01 0.  1.
       11    1    6    6    0    0 -0.46015890952E+02  0.35674281254E+02  0.20461438802E+03  0.21273731302E+03  0.00000000000E+00 0. -1.
      -12    1    6    6    0    0 -0.17629943820E+02 -0.40429970781E+02  0.16147474327E+03  0.16739023320E+03  0.00000000000E+00 0.  1.
</event>
<event>
12   0  0.1523332E-01  0.1956398E+03  0.7957747E-01  0.1159590E+00
       21   -1    0    0  501  503  0.00000000000E+00  0.00000000000E+00  0.12587487910E+03  0.12587487910E+03  0.00000000000E+00 0. -1.
       21   -1    0    0  503  504  0.00000000000E+00  0.00000000000E+00 -0.30347251082E+03  0.30347251082E+03  0.00000000000E+00 0. -1.
        6    2    1    2  501    0  0.94321467021E+02 -0.32564112213E+01 -0.86553087210E+02  0.21393072104E+03  0.17137028081E+03 0.  0.
       24    2    3    3    0    0  0.11263423471E+02  0.44112592770E+02 -0.14638560396E+02  0.94196639411E+02  0.81153766867E+02 0.  0.
       -6    2    1    2    0  504 -0.94321467021E+02  0.32564112213E+01 -0.91044544509E+02  0.21541666887E+03  0.17090374129E+03 0.  0.
      -24    2    5    5    0    0 -0.11305514164E+03  0.11808980552E+02 -0.19255614337E+02  0.14058460688E+03  0.80450829309E+02 0.  0.
        5    1    3    3  501    0  0.83058043550E+02 -0.47369003991E+02 -0.71914526814E+02  0.11973408163E+03  0.47000000000E+01 0. -1.
        2    1    4    4  502    0  0.34394292090E+02  0.42795758973E+02  0.14676417692E+02  0.56831694949E+02  0.00000000000E+00 0. -1.
       -1    1    4    4    0  502 -0.23130868620E+02  0.13168337969E+01 -0.29314978088E+02  0.37364944462E+02  0.00000000000E+00 0.  1.
       -5    1    5    5    0  504  0.18733674614E+02 -0.85525693310E+01 -0.71788930172E+02  0.74832061992E+02  0.47000000000E+01 0.  1.
       13    1    6    6    0    0 -0.73625068454E+02  0.42820474467E+02 -0.28016007199E+02  0.89661253604E+02  0.00000000000E+00 0. -1.
      -14    1    6    6    0    0 -0.39430073181E+02 -0.31011493915E+02  0.87603928620E+01  0.50923353277E+02  0.00000000000E+00 0.  1.
</event>
<event>
12   0  0.1523332E-01  0.2348346E+03  0.7957747E-01  0.1130384E+00
       21   -1    0    0  504  503  0.00000000000E+00  0.00000000000E+00  0.47421800156E+03  0.47421800156E+03  0.00000000000E+00 0. -1.
       21   -1    0    0  501  504  0.00000000000E+00  0.00000000000E+00 -0.13751620523E+03  0.13751620523E+03  0.00000000000E+00 0.  1.
        6    2    1    2  501    0 -0.14480906325E+03  0.66407059251E+02  0.28904946818E+03  0.37242031710E+03  0.17253328728E+03 0.  0.
       24    2    3    3    0    0 -0.49428296168E+02 -0.28034469860E+02  0.76862864525E+02  0.12129895616E+03  0.74675624276E+02 0.  0.
       -6    2    1    2    0  503  0.14480906325E+03 -0.66407059251E+02  0.47652328154E+02  0.23931388969E+03  0.17210703386E+03 0.  0.
      -24    2    5    5    0    0  0.11186341959E+03 -0.10152876357E+03  0.71418297289E+02  0.18540785256E+03  0.80336692286E+02 0.  0.
        5    1    3    3  501    0 -0.95380767083E+02  0.94441529111E+02  0.21218660365E+03  0.25112136094E+03  0.47000000000E+01 0. -1.
        2    1    4    4  502    0 -0.50920378651E+02  0.13115256114E+02  0.40632309368E+02  0.66452084012E+02  0.00000000000E+00 0. -1.
       -1    1    4    4    0  502  0.14920824831E+01 -0.41149725974E+02  0.36230555157E+02  0.54846872152E+02  0.00000000000E+00 0.  1.
       -5    1    5    5    0  503  0.32945643659E+02  0.35121704322E+02 -0.23765969135E+02  0.53906037134E+02  0.47000000000E+01 0.  1.
       13    1    6    6    0    0  0.59000646319E+02 -0.93431145042E+02  0.22162018051E+02  0.11270142046E+03  0.00000000000E+00 0. -1.
      -14    1    6    6    0    0  0.52862773274E+02 -0.80976185304E+01  0.49256279238E+02  0.72706432098E+02  0.00000000000E+00 0.  1.
</event>
<event>
12   0  0.1523332E-01  0.2176002E+03  0.7957747E-01  0.1142394E+00
       -2   -1    0    0    0  501  0.00000000000E+00  0.00000000000E+00  0.65092911584E+02  0.65092911584E+02  0.00000000000E+00 0.  1.
        2   -1    0    0  502    0  0.00000000000E+00  0.00000000000E+00 -0.74019618743E+03  0.74019618743E+03  0.00000000000E+00 0. -1.
        6    2    1    2  502    0 -0.62389135643E+02  0.11581814804E+03 -0.39013864172E+03  0.44661945817E+03  0.17307377904E+03 0.  0.
       24    2    3    3    0    0  0.66003679909E+01  0.43081353341E+02 -0.27484379330E+03  0.29376271155E+03  0.94116162898E+02 0.  0.
       -6    2    1    2    0  501  0.62389135643E+02 -0.11581814804E+03 -0.28496463413E+03  0.35866964085E+03  0.17358807822E+03 0.  0.
      -24    2    5    5    0    0  0.10557185555E+03 -0.64092133905E+02 -0.16783656078E+03  0.22346090073E+03  0.80699719403E+02 0.  0.
        5    1    3    3  502    0 -0.68989503634E+02  0.72736794696E+02 -0.11529484842E+03  0.15285674662E+03  0.47000000000E+01 0. -1.
      -11    1    4    4    0    0 -0.62700253963E+01  0.38397745132E+02 -0.31569615314E+02  0.50103299899E+02  0.00000000000E+00 0.  1.
       12    1    4    4    0    0  0.12870393387E+02  0.46836082096E+01 -0.24327417798E+03  0.24365941165E+03  0.00000000000E+00 0. -1.
       -5    1    5    5    0  501 -0.43182719902E+02 -0.51726014133E+02 -0.11712807335E+03  0.13520874012E+03  0.47000000000E+01 0.  1.
        1    1    6    6  503    0  0.20636017108E+02  0.18394145573E+02 -0.45305089901E+02  0.53072977722E+02  0.00000000000E+00 0. -1.
       -2    1    6    6    0  503  0.84935838438E+02 -0.82486279477E+02 -0.12253147088E+03  0.17038792301E+03  0.00000000000E+00 0.  1.
</event>
<event>
12   0  0.1523332E-01  0.1903320E+03  0.7957747E-01  0.1164120E+00
       21   -1    0    0  501  503  0.00000000000E+00  0.00000000000E+00  0.25287373025E+03  0.25287373025E+03  0.00000000000E+00 0.  1.
       21   -1    0    0  503  504  0.00000000000E+00  0.00000000000E+00 -0.14526816161E+03  0.14526816161E+03  0.00000000000E+00 0.  1.
        6    2    1    2  501    0  0.63783468666E+02  0.44289667382E+02  0.78716571191E+02  0.20596743343E+03  0.17377105496E+03 0.  0.
       24    2    3    3    0    0  0.92766948488E+02  0.76659810257E+02  0.38652173992E+02  0.14667903511E+03  0.74419859889E+02 0.  0.
       -6    2    1    2    0  504 -0.63783468666E+02 -0.44289667382E+02  0.28888997442E+02  0.19217445843E+03  0.17339706684E+03 0.  0.
      -24    2    5    5    0    0  0.13305155388E+02 -0.18247887527E+02 -0.34645721243E+02  0.88832401480E+02  0.78618426549E+02 0.  0.
        5    1    3    3  501    0 -0.28983479822E+02 -0.32370142875E+02  0.40064397198E+02  0.59288398319E+02  0.47000000000E+01 0. -1.
        4    1    4    4  502    0  0.47636924849E+02  0.50693390482E+02 -0.15804590062E+02  0.71336396843E+02  0.00000000000E+00 0. -1.
       -3    1    4    4    0  502  0.45130023640E+02  0.25966419775E+02  0.54456764054E+02  0.75342638266E+02  0.00000000000E+00 0.  1.
       -5    1    5    5    0  504 -0.77088624054E+02 -0.26041779855E+02  0.63534718685E+02  0.10334205695E+03  0.47000000000E+01 0.  1.
       11    1    6    6    0    0 -0.36399333989E+01 -0.22881587658E+02  0.20512185832E+02  0.30944562309E+02  0.00000000000E+00 0. -1.
      -12    1    6    6    0    0  0.16945088787E+02  0.46337001308E+01 -0.55157907076E+02  0.57887839171E+02  0.00000000000E+00 0.  1.
</event>
<event>
12   0  0.1523332E-01  0.2304017E+03  0.7957747E-01  0.1133363E+00
        1   -1    0    0  502    0  0.00000000000E+00  0.00000000000E+00  0.37142862468E+03  0.37142862468E+03  0.00000000000E+00 0. -1.
       -1   -1    0    0    0  501  0.00000000000E+00  0.00000000000E+00 -0.16270677481E+03  0.16270677481E+03  0.00000000000E+00 0.  1.
        6    2    1    2  502    0  0.14177828980E+03  0.56422494511E+02  0.10220468409E+02  0.22798331103E+03  0.16907794293E+03 0.  0.
       24    2    3    3    0    0  0.19590615009E+01  0.22684359204E+02  0.29733652170E+01  0.83892059102E+02  0.80688404403E+02 0.  0.
       -6    2    1    2    0  501 -0.14177828980E+03 -0.56422494511E+02  0.19850138146E+03  0.30615208846E+03  0.17618660982E+03 0.  0.
      -24    2    5    5    0    0 -0.17050436264E+03 -0.26008720155E+02  0.15196724132E+03  0.24340098385E+03  0.80011282328E+02 0.  0.
        5    1    3    3  502    0  0.13981922830E+03  0.33738135307E+02  0.72471031922E+01  0.14409125193E+03  0.47000000000E+01 0. -1.
        2    1    4    4  503    0 -0.32251739048E+02  0.31004991193E+02  0.14199867522E+02  0.46937409261E+02  0.00000000000E+00 0. -1.
       -1    1    4    4    0  503  0.34210800549E+02 -0.83206319889E+01 -0.11226502305E+02  0.36954649841E+02  0.00000000000E+00 0.  1.
       -5    1    5    5    0  501  0.28726072839E+02 -0.30413774357E+02  0.46534140140E+02  0.62751104611E+02  0.47000000000E+01 0.  1.
       13    1    6    6    0    0 -0.74067365482E+02 -0.39635995141E+02  0.10724312042E+03  0.13622802068E+03  0.00000000000E+00 0. -1.
      -14    1    6    6    0    0 -0.96436997160E+02  0.13627274986E+02  0.44724120904E+02  0.10717296317E+03  0.00000000000E+00 0.  1.
</event>
<event>
12   0  0.1523332E-01  0.1857013E+03  0.7957747E-01  0.1168207E+00
       21   -1    0    0  501  503  0.00000000000E+00  0.00000000000E+00  0.41410289659E+03  0.41410289659E+03  0.00000000000E+00 0.  1.
       21   -1    0    0  503  504  0.00000000000E+00  0.00000000000E+00 -0.15407062847E+03  0.15407062847E+03  0.00000000000E+00 0.  1.
        6    2    1    2  501    0 -0.56318523109E+01 -0.68332324772E+02  0.32270516848E+03  0.37232189741E+03  0.17258025714E+03 0.  0.
       24    2    3    3    0    0  0.67234078481E+01 -0.29015456945E+02  0.31913982603E+03  0.33068933544E+03  0.81351748945E+02 0.  0.
       -6    2    1    2    0  504  0.56318523109E+01  0.68332324772E+02 -0.62672900364E+02  0.19585162766E+03  0.17242083182E+03 0.  0.
      -24    2    5    5    0    0 -0.57619541606E+02  0.68230149868E+02 -0.56773752681E+02  0.13215202628E+03  0.79155126999E+02 0.  0.
        5    1    3    3  501    0 -0.12355260159E+02 -0.39316867827E+02  0.35653424491E+01  0.41632561969E+02  0.47000000000E+01 0. -1.
        4    1    4    4  502    0  0.37645313291E+02 -0.37458428598E+02  0.16824510624E+03  0.17642766014E+03  0.00000000000E+00 0. -1.
       -3    1    4    4    0  502 -0.30921905443E+02  0.84429716530E+01  0.15089471979E+03  0.15426167530E+03  0.00000000000E+00 0.  1.
       -5    1    5    5    0  504  0.63251393917E+02  0.10217490347E+00 -0.58991476836E+01  0.63699601377E+02  0.47000000000E+01 0.  1.
       11    1    6    6    0    0 -0.20004201254E+02 -0.15011741907E+02 -0.80572606585E+00  0.25023382213E+02  0.00000000000E+00 0. -1.
      -12    1    6    6    0    0 -0.37615340353E+02  0.83241891776E+02 -0.55968026615E+02  0.10712864407E+03  0.00000000000E+00 0.  1.
</event>
<event>
12   0  0.1523332E-01  0.1821080E+03  0.7957747E-01  0.1171470E+00
       21   -1    0    0  501  503  0.00000000000E+00  0.00000000000E+00  0.25523180457E+03  0.25523180457E+03  0.00000000000E+00 0. -1.
       21   -1    0    0  503  504  0.00000000000E+00  0.00000000000E+00 -0.15153105655E+03  0.15153105655E+03  0.00000000000E+00 0. -1.
        6    2    1    2  501    0  0.46745494410E+02 -0.17525500865E+02  0.13081206275E+03  0.22422116722E+03  0.17513152669E+03 0.  0.
       24    2    3    3    0    0  0.72045321719E+02 -0.26750786714E+02  0.24319744990E+02  0.11427622235E+03  0.81002913693E+02 0.  0.
       -6    2    1    2    0  504 -0.46745494410E+02  0.17525500865E+02 -0.27111314726E+02  0.18254169390E+03  0.17347669064E+03 0.  0.
      -24    2    5    5    0    0  0.42599696219E+02 -0.92886445478E+01 -0.40558097367E+02  0.88178208128E+02  0.65034022567E+02 0.  0.
        5    1    3    3  501    0 -0.25299827309E+02  0.92252858489E+01  0.10649231776E+03  0.10994494487E+03  0.47000000000E+01 0. -1.
        4    1    4    4  502    0  0.84934762405E+02 -0.40597548721E+01  0.23271928928E+02  0.88158823441E+02  0.00000000000E+00 0. -1.
       -3    1    4    4    0  502 -0.12889440686E+02 -0.22691031842E+02  0.10478160623E+01  0.26117398909E+02  0.00000000000E+00 0.  1.
       -5    1    5    5    0  504 -0.89345190629E+02  0.26814145413E+02  0.13446782641E+02  0.94363485767E+02  0.47000000000E+01 0.  1.
       13    1    6    6    0    0  0.63550566550E+01 -0.27424494214E+02 -0.38371382581E+02  0.47590467839E+02  0.00000000000E+00 0. -1.
      -14    1    6    6    0    0  0.36244639564E+02  0.18135849666E+02 -0.21867147855E+01  0.40587740289E+02  0.00000000000E+00 0.  1.
</event>
<event>
12   0  0.1523332E-01  0.2096114E+03  0.7957747E-01  0.1148381E+00
       21   -1    0    0  501  503  0.00000000000E+00  0.00000000000E+00  0.96307573752E+02  0.96307573752E+02  0.00000000000E+00 0.  1.
       21   -1    0    0  503  504  0.00000000000E+00  0.00000000000E+00 -0.10158144164E+04  0.10158144164E+04  0.00000000000E+00 0.  1.
        6    2    1    2  501    0  0.87805892667E+02  0.45683681589E+02 -0.43687880175E+02  0.21411582256E+03  0.18477034677E+03 0.  0.
       24    2    3    3    0    0 -0.22771242953E+01  0.40882107022E+02  0.34325488436E+02  0.94758456866E+02  0.78258507663E+02 0.  0.
       -6    2    1    2    0  504 -0.87805892667E+02 -0.45683681589E+02 -0.87581896243E+03  0.89800616754E+03  0.17192832359E+03 0.  0.
      -24    2    5    5    0    0  0.11544897418E+02 -0.71833775230E+01 -0.53260058391E+03  0.53859860188E+03  0.78994850459E+02 0.  0.
        5    1    3    3  501    0  0.90083016963E+02  0.48015745672E+01 -0.78013368611E+02  0.11935736569E+03  0.47000000000E+01 0. -1.
      -13    1    4    4    0    0  0.25974284924E+02  0.50001638022E+02  0.11988793649E+02  0.57606930619E+02  0.00000000000E+00 0.  1.
       14    1    4    4    0    0 -0.28251409219E+02 -0.91195309998E+01  0.22336694787E+02  0.37151526247E+02  0.00000000000E+00 0. -1.
       -5    1    5    5    0  504 -0.99350790086E+02 -0.38500304066E+02 -0.34321837852E+03  0.35940756566E+03  0.47000000000E+01 0.  1.
        3    1    6    6  502    0 -0.57383187995E+00  0.35265155195E+02 -0.27342598803E+03  0.27569136980E+03  0.00000000000E+00 0. -1.
       -4    1    6    6    0  502  0.12118729298E+02 -0.42448532718E+02 -0.25917459588E+03  0.26290723208E+03  0.00000000000E+00 0.  1.
</event>
<event>
12   0  0.1523332E-01  0.1926440E+03  0.7957747E-01  0.1162127E+00
       21   -1    0    0  501  503  0.00000000000E+00  0.00000000000E+00  0.24334458277E+03  0.24334458277E+03  0.00000000000E+00 0. -1.
       21   -1    0    0  503  504  0.00000000000E+00  0.00000000000E+00 -0.20313879182E+03  0.20313879182E+03  0.00000000000E+00 0.  1.
        6    2    1    2  501    0  0.48529761236E+02  0.67589561733E+02  0.13212696251E+03  0.23303261496E+03  0.17298317500E+03 0.  0.
       24    2    3    3    0    0  0.35054708827E+02 -0.29865237940E+02  0.74012267650E+02  0.11867168293E+03  0.80525694768E+02 0.  0.
       -6    2    1    2    0  504 -0.48529761236E+02 -0.67589561733E+02 -0.91921171564E+02  0.21345075963E+03  0.17374762854E+03 0.  0.
      -24    2    5    5    0    0 -0.84444647077E+01  0.17594426701E+02 -0.23078420232E+01  0.83390074891E+02  0.81041382148E+02 0.  0.
        5    1    3    3  501    0  0.13475052409E+02  0.97454799673E+02  0.58114694859E+02  0.11436093203E+03  0.47000000000E+01 0. -1.
      -13    1    4    4    0    0  0.35541545993E+02  0.79015730407E+01  0.94718817311E+00  0.36421607784E+02  0.00000000000E+00 0.  1.
       14    1    4    4    0    0 -0.48683716621E+00 -0.37766810981E+02  0.73065079477E+02  0.82250075143E+02  0.00000000000E+00 0. -1.
       -5    1    5    5    0  504 -0.40085296528E+02 -0.85183988434E+02 -0.89613329541E+02  0.13006068474E+03  0.47000000000E+01 0.  1.
        1    1    6    6  502    0  0.33758638187E+02 -0.64900638010E+01  0.30088703450E+01  0.34508258159E+02  0.00000000000E+00 0. -1.
       -2    1    6    6    0  502 -0.42203102895E+02  0.24084490502E+02 -0.53167123682E+01  0.48881816733E+02  0.00000000000E+00 0.  1.
</event>
<event>
12   0  0.1523332E-01  0.2274057E+03  0.7957747E-01  0.1135418E+00
        1   -1    0    0  502    0  0.00000000000E+00  0.00000000000E+00  0.29985852624E+03  0.29985852624E+03  0.00000000000E+00 0.  1.
       -1   -1    0    0    0  501  0.00000000000E+00  0.00000000000E+00 -0.18228417023E+03  0.18228417023E+03  0.00000000000E+00 0. -1.
        6    2    1    2  502    0 -0.93378910357E+02  0.11320200879E+03  0.25358807442E+01  0.22620335462E+03  0.17212556829E+03 0.  0.
       24    2    3    3    0    0 -0.89621135365E+02  0.80055352100E+02  0.61760663985E+02  0.15806755880E+03  0.82037590316E+02 0.  0.
       -6    2    1    2    0  501  0.93378910357E+02 -0.11320200879E+03  0.11503847527E+03  0.25593934185E+03  0.17531908117E+03 0.  0.
      -24    2    5    5    0    0  0.94364757674E+02 -0.19091031426E+02  0.10138031979E+03  0.16072125971E+03  0.79272814454E+02 0.  0.
        5    1    3    3  502    0 -0.37577749927E+01  0.33146656690E+02 -0.59224783241E+02  0.68135795824E+02  0.47000000000E+01 0. -1.
        4    1    4    4  503    0 -0.87616805704E+02  0.37867651470E+02  0.17780899236E+02  0.97091833062E+02  0.00000000000E+00 0. -1.
       -3    1    4    4    0  503 -0.20043296608E+01  0.42187700630E+02  0.43979764748E+02  0.60975725737E+02  0.00000000000E+00 0.  1.
       -5    1    5    5    0  501 -0.98584731661E+00 -0.94110977365E+02  0.13658155479E+02  0.95218082141E+02  0.47000000000E+01 0.  1.
       11    1    6    6    0    0  0.32030963118E+02 -0.21126354856E+02 -0.36770374642E+01  0.38546414519E+02  0.00000000000E+00 0. -1.
      -12    1    6    6    0    0  0.62333794556E+02  0.20353234302E+01  0.10505735725E+03  0.12217484519E+03  0.00000000000E+00 0.  1.
</event>
<event>
12   0  0.1523332E-01  0.1754024E+03  0.7957747E-01  0.1177786E+00
       21   -1    0    0  501  503  0.00000000000E+00  0.00000000000E+00  0.14050852061E+03  0.14050852061E+03  0.00000000000E+00 0. -1.
       21   -1    0    0  503  504  0.00000000000E+00  0.00000000000E+00 -0.25998704968E+03  0.25998704968E+03  0.00000000000E+00 0. -1.
        6    2    1    2  501    0 -0.16623341282E+02  0.25301438419E+02 -0.14242496790E+03  0.22359862617E+03  0.16969082439E+03 0.  0.
       24    2    3    3    0    0  0.46300350507E+02  0.30060874281E+02 -0.12279605809E+03  0.15734587288E+03  0.81433857894E+02 0.  0.
       -6    2    1    2    0  504  0.16623341282E+02 -0.25301438419E+02  0.22946438827E+02  0.17689694412E+03  0.17277005389E+03 0.  0.
      -24    2    5    5    0    0  0.37851104815E+02  0.34362846849E+02 -0.23928263993E+02  0.97968035307E+02  0.80072858978E+02 0.  0.
        5    1    3    3  501    0 -0.62923691789E+02 -0.47594358622E+01 -0.19628909813E+02  0.66252753290E+02  0.47000000000E+01 0. -1.
        2    1    4    4  502    0  0.63949907619E+02  0.13823406618E+02 -0.55134911369E+02  0.85560129188E+02  0.00000000000E+00 0. -1.
       -1    1    4    4    0  502 -0.17649557112E+02  0.16237467663E+02 -0.67661146720E+02  0.71785743695E+02  0.00000000000E+00 0.  1.
       -5    1    5    5    0  504 -0.21227763533E+02 -0.59664285268E+02  0.46874702820E+02  0.78928908808E+02  0.47000000000E+01 0.  1.
       13    1    6    6    0    0 -0.15807349964E+02  0.14345095177E+02  0.17237942497E+02  0.27437214328E+02  0.00000000000E+00 0. -1.
      -14    1    6    6    0    0  0.53658454779E+02  0.20017751672E+02 -0.41166206490E+02  0.70530820980E+02  0.00000000000E+00 0.  1.
</event>
<event>
12   0  0.1523332E-01  0.2041082E+03  0.7957747E-01  0.1152679E+00
       21   -1    0    0  501  503  0.00000000000E+00  0.00000000000E+00  0.14511714189E+03  0.14511714189E+03  0.00000000000E+00 0. -1.
       21   -1    0    0  503  504  0.00000000000E+00  0.00000000000E+00 -0.29457842841E+03  0.29457842841E+03  0.00000000000E+00 0.  1.
        6    2    1    2  501    0  0.71630816285E+02 -0.81763008523E+02 -0.34997054830E+02  0.20708679612E+03  0.17275411392E+03 0.  0.
       24    2    3    3    0    0  0.42213953251E+02 -0.12127096881E+03 -0.11137911181E+02  0.15215429670E+03  0.80859206105E+02 0.  0.
       -6    2    1    2    0  504 -0.71630816285E+02  0.81763008523E+02 -0.11446423169E+03  0.23260877419E+03  0.17084676787E+03 0.  0.
      -24    2    5    5    0    0 -0.93437347543E+01  0.42894219352E+01 -0.10554794726E+03  0.13269167219E+03  0.79755916263E+02 0.  0.
        5    1    3    3  501    0  0.29416863034E+02  0.39507960288E+02 -0.23859143649E+02  0.54932499421E+02  0.47000000000E+01 0. -1.
        2    1    4    4  502    0  0.63142092673E+01 -0.10946399228E+03  0.77231824005E+01  0.10991761638E+03  0.00000000000E+00 0. -1.
       -1    1    4    4    0  502  0.35899743984E+02 -0.11806976531E+02 -0.18861093581E+02  0.42236680314E+02  0.00000000000E+00 0.  1.
       -5    1    5    5    0  504 -0.62287081531E+02  0.77473586588E+02 -0.89162844343E+01  0.99917102002E+02  0.47000000000E+01 0.  1.
       13    1    6    6    0    0  0.24300648653E+01  0.27386065442E+02 -0.38746716323E+01  0.27765353877E+02  0.00000000000E+00 0. -1.
      -14    1    6    6    0    0 -0.11773799620E+02 -0.23096643507E+02 -0.10167327562E+03  0.10492631831E+03  0.00000000000E+00 0.  1.
</event>
<event>
12   0  0.1523332E-01  0.2438320E+03  0.7957747E-01  0.1124552E+00
       21   -1    0    0  501  503  0.00000000000E+00  0.00000000000E+00  0.17454859655E+03  0.17454859655E+03  0.00000000000E+00 0. -1.
       21   -1    0    0  503  504  0.00000000000E+00  0.00000000000E+00 -0.38298087915E+03  0.38298087915E+03  0.00000000000E+00 0.  1.
        6    2    1    2  501    0  0.15810643818E+03 -0.69998621860E+02 -0.20169233704E+03  0.31360436616E+03  0.16664467228E+03 0.  0.
       24    2    3    3    0    0  0.76951792509E+02 -0.81992654142E+02 -0.62175187523E+02  0.15168754081E+03  0.80616266279E+02 0.  0.
       -6    2    1    2    0  504 -0.15810643818E+03  0.69998621860E+02 -0.67399455540E+01  0.24392510953E+03  0.17192027029E+03 0.  0.
      -24    2    5    5    0    0 -0.16536871740E+03  0.90430954319E+02  0.22679213689E+02  0.20707680102E+03  0.82715685302E+02 0.  0.
        5    1    3    3  501    0  0.81154645668E+02  0.11994032283E+02 -0.13951714952E+03  0.16191682536E+03  0.47000000000E+01 0. -1.
      -11    1    4    4    0    0  0.79879647720E+02 -0.32641382442E+02 -0.53396512807E+02  0.10147613290E+03  0.00000000000E+00 0.  1.
       12    1    4    4    0    0 -0.29278552110E+01 -0.49351271700E+02 -0.87786747160E+01  0.50211407910E+02  0.00000000000E+00 0. -1.
       -5    1    5    5    0  504  0.72622792229E+01 -0.20432332459E+02 -0.29419159243E+02  0.36848308506E+02  0.47000000000E+01 0.  1.
        3    1    6    6  502    0 -0.27422455993E+02  0.29649114268E+02 -0.26743293753E+02  0.48438257920E+02  0.00000000000E+00 0. -1.
       -4    1    6    6    0  502 -0.13794626141E+03  0.60781840051E+02  0.49422507442E+02  0.15863854310E+03  0.00000000000E+00 0.  1.
</event>
<event>
12   0  0.1523332E-01  0.1742619E+03  0.7957747E-01  0.1178891E+00
       21   -1    0    0  504  503  0.00000000000E+00  0.00000000000E+00  0.35367449996E+03  0.35367449996E+03  0.00000000000E+00 0.  1.
       21   -1    0    0  501  504  0.00000000000E+00  0.00000000000E+00 -0.15807535488E+03  0.15807535488E+03  0.00000000000E+00 0.  1.
        6    2    1    2  501    0  0.23359576164E+02 -0.42884134187E+01 -0.75723425909E+02  0.19000324515E+03  0.17263584694E+03 0.  0.
       24    2    3    3    0    0  0.29741080376E+02  0.62077199157E+02 -0.56805093224E+02  0.12054022304E+03  0.81024787802E+02 0.  0.
       -6    2    1    2    0  503 -0.23359576164E+02  0.42884134187E+01  0.27132257099E+03  0.32174660969E+03  0.17129180666E+03 0.  0.
      -24    2    5    5    0    0 -0.76048454107E+02 -0.68346476528E+01  0.22386592519E+03  0.24981564573E+03  0.80385475094E+02 0.  0.
        5    1    3    3  501    0 -0.63815042117E+01 -0.66365612576E+02 -0.18918332685E+02  0.69463022106E+02  0.47000000000E+01 0. -1.
        4    1    4    4  502    0  0.46704417908E+02  0.56013819550E+01 -0.29785042016E+02  0.55676088762E+02  0.00000000000E+00 0. -1.
       -3    1    4    4    0  502 -0.16963337532E+02  0.56475817202E+02 -0.27020051208E+02  0.64864134282E+02  0.00000000000E+00 0.  1.
       -5    1    5    5    0  503  0.52688877942E+02  0.11123061072E+02  0.47456645793E+02  0.71930963961E+02  0.47000000000E+01 0.  1.
       11    1    6    6    0    0 -0.72658379190E+02  0.21380095883E+01  0.90374206803E+02  0.11597977585E+03  0.00000000000E+00 0. -1.
      -12    1    6    6    0    0 -0.33900749166E+01 -0.89726572411E+01  0.13349171839E+03  0.13383586987E+03  0.00000000000E+00 0.  1.
</event>
<event>
12   0  0.1523332E-01  0.1983302E+03  0.7957747E-01  0.1157353E+00
       21   -1    0    0  501  503  0.00000000000E+00  0.00000000000E+00  0.55550194193E+03  0.55550194193E+03  0.00000000000E+00 0. -1.
       21   -1    0    0  503  504  0.00000000000E+00  0.00000000000E+00 -0.35775236888E+03  0.35775236888E+03  0.00000000000E+00 0. -1.
        6    2    1    2  501    0  0.50252297523E+02  0.81539898283E+02  0.50906844466E+03  0.54633830103E+03  0.17366867713E+03 0.  0.
       24    2    3    3    0    0  0.27224776208E+02  0.66466327021E+02  0.50143282619E+03  0.51739228304E+03  0.10536097143E+03 0.  0.
       -6    2    1    2    0  504 -0.50252297523E+02 -0.81539898283E+02 -0.31131887160E+03  0.36691600977E+03  0.16891971463E+03 0.  0.
      -24    2    5    5    0    0 -0.22684568563E+02 -0.58134034189E+02 -0.31426687437E+03  0.33032919692E+03  0.80371353301E+02 0.  0.
        5    1    3    3  501    0  0.23027521315E+02  0.15073571262E+02  0.76356184698E+01  0.28946017998E+02  0.47000000000E+01 0. -1.
      -13    1    4    4    0    0  0.30117309796E+02  0.10528799261E+02  0.34036926482E+02  0.46652120290E+02  0.00000000000E+00 0.  1.
       14    1    4    4    0    0 -0.28925335878E+01  0.55937527760E+02  0.46739589970E+03  0.47074016275E+03  0.00000000000E+00 0. -1.
       -5    1    5    5    0  504 -0.27567728960E+02 -0.23405864094E+02  0.29480027654E+01  0.36586812848E+02  0.47000000000E+01 0.  1.
        1    1    6    6  502    0  0.23642783651E+02 -0.90007075319E+00 -0.41217193550E+02  0.47525239507E+02  0.00000000000E+00 0. -1.
       -2    1    6    6    0  502 -0.46327352214E+02 -0.57233963436E+02 -0.27304968082E+03  0.28280395741E+03  0.00000000000E+00 0.  1.
</event>
<event>
12   0  0.1523332E-01  0.1773062E+03  0.7957747E-01  0.1175962E+00
       21   -1    0    0  504  503  0.00000000000E+00  0.00000000000E+00  0.44913264219E+03  0.44913264219E+03  0.00000000000E+00 0. -1.
       21   -1    0    0  501  504  0.00000000000E+00  0.00000000000E+00 -0.76756054724E+02  0.76756054724E+02  0.00000000000E+00 0. -1.
        6    2    1    2  501    0  0.17066809025E+02  0.31343848077E+02  0.10798309958E+03  0.20760020599E+03  0.17367723785E+03 0.  0.
       24    2    3    3    0    0  0.31909361088E+02 -0.79918115255E+01 -0.53405945844E+01  0.86637628603E+02  0.79971747280E+02 0.  0.
       -6    2    1    2    0  503 -0.17066809025E+02 -0.31343848077E+02  0.26439348788E+03  0.31828849093E+03  0.17357976333E+03 0.  0.
      -24    2    5    5    0    0 -0.69133753564E+02  0.13605934825E+02  0.14022087406E+03  0.17625899498E+03  0.80254236293E+02 0.  0.
        5    1    3    3  501    0 -0.14842552062E+02  0.39335659602E+02  0.11332369417E+03  0.12096257738E+03  0.47000000000E+01 0. -1.
      -13    1    4    4    0    0 -0.45964385349E+01  0.25944486418E+02 -0.21746707374E+02  0.34163765957E+02  0.00000000000E+00 0.  1.
       14    1    4    4    0    0  0.36505799622E+02 -0.33936297944E+02  0.16406112790E+02  0.52473862647E+02  0.00000000000E+00 0. -1.
       -5    1    5    5    0  503  0.52066944539E+02 -0.44949782902E+02  0.12417261382E+03  0.14202949595E+03  0.47000000000E+01 0.  1.
        1    1    6    6  502    0 -0.29797873951E+02  0.39767165126E+02  0.34591112872E+02  0.60546558976E+02  0.00000000000E+00 0. -1.
       -2    1    6    6    0  502 -0.39335879613E+02 -0.26161230301E+02  0.10562976119E+03  0.11571243600E+03  0.00000000000E+00 0.  1.
</event>
<event>
12   0  0.1523332E-01  0.1879967E+03  0.7957747E-01  0.1166165E+00
       21   -1    0    0  501  503  0.00000000000E+00  0.00000000000E+00  0.47165262073E+03  0.47165262073E+03  0.00000000000E+00 0.  1.
       21   -1    0    0  503  504  0.00000000000E+00  0.00000000000E+00 -0.15888589074E+03  0.15888589074E+03  0.00000000000E+00 0.  1.
        6    2    1    2  501    0 -0.77824529398E+01 -0.79560316433E+02  0.39607545574E+03  0.43842731221E+03  0.17015384487E+03 0.  0.
       24    2    3    3    0    0  0.56089161598E+02 -0.58307912147E+02  0.18318794665E+03  0.21510147546E+03  0.78517604899E+02 0.  0.
       -6    2    1    2    0  504  0.77824529398E+01  0.79560316433E+02 -0.83308725750E+02  0.19211119926E+03  0.15354464683E+03 0.  0.
      -24    2    5    5    0    0 -0.28475485022E+02  0.54528326295E+02 -0.42756099115E+01  0.10150456598E+03  0.80626946230E+02 0.  0.
        5    1    3    3  501    0 -0.63871614538E+02 -0.21252404287E+02  0.21288750910E+03  0.22332583675E+03  0.47000000000E+01 0. -1.
        2    1    4    4  502    0  0.56461866560E+01 -0.51425634752E+02  0.47717265803E+02  0.70380485854E+02  0.00000000000E+00 0. -1.
       -1    1    4    4    0  502  0.50442974942E+02 -0.68822773951E+01  0.13547068084E+03  0.14472098960E+03  0.00000000000E+00 0.  1.
       -5    1    5    5    0  504  0.36257937962E+02  0.25031990138E+02 -0.79033115838E+02  0.90606633281E+02  0.47000000000E+01 0.  1.
       11    1    6    6    0    0 -0.53691948151E+02  0.25974714606E+02  0.10654384426E+02  0.60589000673E+02  0.00000000000E+00 0. -1.
      -12    1    6    6    0    0  0.25216463129E+02  0.28553611689E+02 -0.14929994338E+02  0.40915565304E+02  0.00000000000E+00 0.  1.
</event>
<event>
12   0  0.1523332E-01  0.2460685E+03  0.7957747E-01  0.1123145E+00
       21   -1    0    0  501  503  0.00000000000E+00  0.00000000000E+00  0.49622323417E+03  0.49622323417E+03  0.00000000000E+00 0.  1.
       21   -1    0    0  503  504  0.00000000000E+00  0.00000000000E+00 -0.15204222150E+03  0.15204222150E+03  0.00000000000E+00 0. -1.
        6    2    1    2  501    0 -0.14175047243E+03 -0.10018844747E+03  0.27466123394E+02  0.24719436305E+03  0.17383826894E+03 0.  0.
       24    2    3    3    0    0 -0.87792151559E+02 -0.43980531804E+02  0.82997185532E+02  0.15139969182E+03  0.79947387843E+02 0.  0.
       -6    2    1    2    0  504  0.14175047243E+03  0.10018844747E+03  0.31671488928E+03  0.40107109262E+03  0.17440980134E+03 0.  0.
      -24    2    5    5    0    0  0.42567798821E+02  0.39461316375E+02  0.50440557628E+02  0.11046982474E+03  0.79310272593E+02 0.  0.
        5    1    3    3  501    0 -0.53958320868E+02 -0.56207915664E+02 -0.55531062138E+02  0.95794671232E+02  0.47000000000E+01 0. -1.
      -13    1    4    4    0    0 -0.85747058071E+02 -0.62386539747E+02  0.79549344757E+02  0.13256219884E+03  0.00000000000E+00 0.  1.
       14    1    4    4    0    0 -0.20450934887E+01  0.18406007943E+02  0.34478407759E+01  0.18837492980E+02  0.00000000000E+00 0. -1.
       -5    1    5    5    0  504  0.99182673606E+02  0.60727131093E+02  0.26627433165E+03  0.29060126787E+03  0.47000000000E+01 0.  1.
        1    1    6    6  502    0  0.13638553089E+02  0.49965826932E+02  0.59015535361E+02  0.78520235642E+02  0.00000000000E+00 0. -1.
       -2    1    6    6    0  502  0.28929245732E+02 -0.10504510558E+02 -0.85749777328E+01  0.31949589102E+02  0.00000000000E+00 0.  1.
</event>
<event>
12   0  0.1523332E-01  0.2116432E+03  0.7957747E-01  0.1146831E+00
       21   -1    0    0  504  503  0.00000000000E+00  0.00000000000E+00  0.42913800481E+03  0.42913800481E+03  0.00000000000E+00 0.  1.
       21   -1    0    0  501  504  0.00000000000E+00  0.00000000000E+00 -0.14504860556E+03  0.14504860556E+03  0.00000000000E+00 0. -1.
        6    2    1    2  501    0  0.91726382400E+02  0.81017821913E+02 -0.10195529723E+02  0.21170013493E+03  0.17243950130E+03 0.  0.
       24    2    3    3    0    0 -0.40435384188E+01  0.78302943156E+02  0.15899291080E+02  0.11229048765E+03  0.78795082649E+02 0.  0.
       -6    2    1    2    0  503 -0.91726382400E+02 -0.81017821913E+02  0.29428492898E+03  0.36248647544E+03  0.17267081038E+03 0.  0.
      -24    2    5    5    0    0 -0.39512862403E+02  0.25213956503E+02  0.99745462529E+02  0.13471655551E+03  0.77475048478E+02 0.  0.
        5    1    3    3  501    0  0.95769920819E+02  0.27148787572E+01 -0.26094820802E+02  0.99409647284E+02  0.47000000000E+01 0. -1.
        2    1    4    4  502    0  0.17518495338E+02  0.86328775717E+02  0.14140408570E+02  0.89216065538E+02  0.00000000000E+00 0. -1.
       -1    1    4    4    0  502 -0.21562033757E+02 -0.80258325608E+01  0.17588825097E+01  0.23074422110E+02  0.00000000000E+00 0.  1.
       -5    1    5    5    0  503 -0.52213519997E+02 -0.10623177842E+03  0.19453946645E+03  0.22776991992E+03  0.47000000000E+01 0.  1.
       11    1    6    6    0    0  0.23430152867E+01 -0.12011825964E+02 -0.70491490849E+01  0.14123179049E+02  0.00000000000E+00 0. -1.
      -12    1    6    6    0    0 -0.41855877690E+02  0.37225782467E+02  0.10679461161E+03  0.12059337647E+03  0.00000000000E+00 0.  1.
</event>
<event>
12   0  0.1523332E-01  0.2212323E+03  0.7957747E-01  0.1139764E+00
       21   -1    0    0  501  503  0.00000000000E+00  0.00000000000E+00  0.39023254729E+03  0.39023254729E+03  0.00000000000E+00 0. -1.
       21   -1    0    0  503  504  0.00000000000E+00  0.00000000000E+00 -0.18372980432E+03  0.18372980432E+03  0.00000000000E+00 0. -1.
        6    2    1    2  501    0  0.13548428016E+03  0.21367041746E+02  0.26497206479E+03  0.34513401652E+03  0.17347839518E+03 0.  0.
       24    2    3    3    0    0  0.37774530251E+02  0.52189456558E+02  0.89621354652E+02  0.14199077142E+03  0.89323778736E+02 0.  0.
       -6    2    1    2    0  504 -0.13548428016E+03 -0.21367041746E+02 -0.58469321819E+02  0.22882833509E+03  0.17358342290E+03 0.  0.
      -24    2    5    5    0    0 -0.87042582510E+01  0.83620147037E+01  0.94176943093E+01  0.81900707634E+02  0.80457103746E+02 0.  0.
        5    1    3    3  501    0  0.97709749907E+02 -0.30822414813E+02  0.17535071014E+03  0.20314324510E+03  0.47000000000E+01 0. -1.
      -13    1    4    4    0    0 -0.24431660253E+02  0.30621757193E+02  0.13706140221E+02  0.41502485661E+02  0.00000000000E+00 0.  1.
       14    1    4    4    0    0  0.62206190504E+02  0.21567699365E+02  0.75915214431E+02  0.10048828576E+03  0.00000000000E+00 0. -1.
       -5    1    5    5    0  504 -0.12678002191E+03 -0.29729056449E+02 -0.67887016129E+02  0.14692762746E+03  0.47000000000E+01 0.  1.
        1    1    6    6  502    0 -0.37092137514E+02  0.11443374781E+02 -0.17572051335E+02  0.42609323860E+02  0.00000000000E+00 0. -1.
       -2    1    6    6    0  502  0.28387879263E+02 -0.30813600768E+01  0.26989745644E+02  0.39291383774E+02  0.00000000000E+00 0.  1.
</event>
<event>
12   0  0.1523332E-01  0.2166415E+03  0.7957747E-01  0.1143097E+00
       21   -1    0    0  504  503  0.00000000000E+00  0.00000000000E+00  0.10595026983E+03  0.10595026983E+03  0.00000000000E+00 0. -1.
       21   -1    0    0  501  504  0.00000000000E+00  0.00000000000E+00 -0.73340986739E+03  0.73340986739E+03  0.00000000000E+00 0.  1.
        6    2    1    2  501    0 -0.34436141820E+01 -0.12895516149E+03 -0.57784866383E+03  0.61711078866E+03  0.17399814667E+03 0.  0.
       24    2    3    3    0    0 -0.80634579302E+01 -0.15211076909E+03 -0.56285370585E+03  0.58874771612E+03  0.81344167686E+02 0.  0.
       -6    2    1    2    0  503  0.34436141820E+01  0.12895516149E+03 -0.49610933736E+02  0.22224934856E+03  0.17404664902E+03 0.  0.
      -24    2    5    5    0    0 -0.52745167775E+02  0.12042143452E+03 -0.11502966911E+02  0.15366136966E+03  0.78715460121E+02 0.  0.
        5    1    3    3  501    0  0.46198437482E+01  0.23155607600E+02 -0.14994957977E+02  0.28363072548E+02  0.47000000000E+01 0. -1.
        2    1    4    4  502    0 -0.15924799967E+02 -0.19338596999E+02 -0.27851421581E+02  0.37460409395E+02  0.00000000000E+00 0. -1.
       -1    1    4    4    0  502  0.78613420371E+01 -0.13277217209E+03 -0.53500228427E+03  0.55128730672E+03  0.00000000000E+00 0.  1.
       -5    1    5    5    0  503  0.56188781957E+02  0.85337269711E+01 -0.38107966825E+02  0.68587978898E+02  0.47000000000E+01 0.  1.
       13    1    6    6    0    0 -0.53046311654E+02  0.86469659418E+02 -0.40285149935E+02  0.10915038472E+03  0.00000000000E+00 0. -1.
      -14    1    6    6    0    0  0.30114387965E+00  0.33951775104E+02  0.28782183025E+02  0.44510984937E+02  0.00000000000E+00 0.  1.
</event>
<event>
12   0  0.1523332E-01  0.2172948E+03  0.7957747E-01  0.1142617E+00
       21   -1    0    0  504  503  0.00000000000E+00  0.00000000000E+00  0.21150703949E+03  0.21150703949E+03  0.00000000000E+00 0. -1.
       21   -1    0    0  501  504  0.00000000000E+00  0.00000000000E+00 -0.55760525804E+03  0.55760525804E+03  0.00000000000E+00 0.  1.
        6    2    1    2  501    0  0.11346907048E+03  0.61722977646E+02 -0.47107250511E+03  0.51844198034E+03  0.17374644162E+03 0.  0.
       24    2    3    3    0    0  0.38241587618E+00  0.65845114455E+02 -0.21221634396E+03  0.23589254107E+03  0.79207253142E+02 0.  0.
       -6    2    1    2    0  503 -0.11346907048E+03 -0.61722977646E+02  0.12497428656E+03  0.25067031720E+03  0.17473431174E+03 0.  0.
      -24    2    5    5    0    0 -0.66314295391E+02 -0.29493550608E+02 -0.69213994908E+01  0.10686186550E+03  0.78128722161E+02 0.  0.
        5    1    3    3  501    0  0.11308665460E+03 -0.41221368086E+01 -0.25885616116E+03  0.28254943927E+03  0.47000000000E+01 0. -1.
        2    1    4    4  502    0 -0.10039239889E+02  0.22167401132E+02 -0.63000214774E+01  0.25137030078E+02  0.00000000000E+00 0. -1.
       -1    1    4    4    0  502  0.10421655765E+02  0.43677713322E+02 -0.20591632248E+03  0.21075551099E+03  0.00000000000E+00 0.  1.
       -5    1    5    5    0  503 -0.47154775090E+02 -0.32229427038E+02  0.13189568605E+03  0.14380845170E+03  0.47000000000E+01 0.  1.
       11    1    6    6    0    0 -0.57086493548E+02 -0.51105431645E+02  0.10869819142E+02  0.77387246091E+02  0.00000000000E+00 0. -1.
      -12    1    6    6    0    0 -0.92278018423E+01  0.21611881038E+02 -0.17791218633E+02  0.29474619409E+02  0.00000000000E+00 0.  1.
</event>
<event>
12   0  0.1523332E-01  0.1941438E+03  0.7957747E-01  0.1160850E+00
       21   -1    0    0  504  503  0.00000000000E+00  0.00000000000E+00  0.11329860855E+04  0.11329860855E+04  0.00000000000E+00 0.  1.
       21   -1    0    0  501  504  0.00000000000E+00  0.00000000000E+00 -0.33106222947E+02  0.33106222947E+02  0.00000000000E+00 0.  1.
        6    2    1    2  501    0  0.39235228859E+02 -0.75820405983E+02  0.54626488955E+03  0.57942258022E+03  0.17331203005E+03 0.  0.
       24    2    3    3    0    0  0.11596428390E+02 -0.96074657556E+02  0.52517056105E+03  0.53891086965E+03  0.72498208618E+02 0.  0.
       -6    2    1    2    0  503 -0.39235228859E+02  0.75820405983E+02  0.55361497303E+03  0.58666972826E+03  0.17436655226E+03 0.  0.
      -24    2    5    5    0    0 -0.33450604666E+02 -0.12069714531E+02  0.39788370933E+03  0.40769360791E+03  0.81473988621E+02 0.  0.
        5    1    3    3  501    0  0.27638800470E+02  0.20254251573E+02  0.21094328499E+02  0.40511710566E+02  0.47000000000E+01 0. -1.
      -11    1    4    4    0    0  0.46103200763E+01 -0.25618238380E+02  0.34813655034E+02  0.43468836719E+02  0.00000000000E+00 0.  1.
       12    1    4    4    0    0  0.69861083132E+01 -0.70456419176E+02  0.49035690602E+03  0.49544203293E+03  0.00000000000E+00 0. -1.
       -5    1    5    5    0  503 -0.57846241930E+01  0.87890120514E+02  0.15573126370E+03  0.17897612035E+03  0.47000000000E+01 0.  1.
        1    1    6    6  502    0 -0.92026218421E+01 -0.36967347028E+02  0.88328315977E+02  0.96193369825E+02  0.00000000000E+00 0. -1.
       -2    1    6    6    0  502 -0.24247982824E+02  0.24897632496E+02  0.30955539335E+03  0.31150023809E+03  0.00000000000E+00 0.  1.
</event>
<event>
12   0  0.1523332E-01  0.2220258E+03  0.7957747E-01  0.1139197E+00
       21   -1    0    0  501  503  0.00000000000E+00  0.00000000000E+00  0.63533020647E+03  0.63533020647E+03  0.00000000000E+00 0.  1.
       21   -1    0    0  503  504  0.00000000000E+00  0.00000000000E+00 -0.76666208126E+02  0.76666208126E+02  0.00000000000E+00 0. -1.
        6    2    1    2  501    0  0.12614635823E+03  0.41706210125E+02  0.25843457273E+03  0.33858892775E+03  0.17378642626E+03 0.  0.
       24    2    3    3    0    0  0.27062910164E+02 -0.36628400092E+02  0.12347352145E+03  0.15368242110E+03  0.79363311775E+02 0.  0.
       -6    2    1    2    0  504 -0.12614635823E+03 -0.41706210125E+02  0.30022942561E+03  0.37340748685E+03  0.17788516401E+03 0.  0.
      -24    2    5    5    0    0 -0.12185000271E+02 -0.65432458306E+02  0.18900491937E+03  0.21233884698E+03  0.70249879432E+02 0.  0.
        5    1    3    3  501    0  0.99083448062E+02  0.78334610217E+02  0.13496105128E+03  0.18490650664E+03  0.47000000000E+01 0. -1.
        2    1    4    4  502    0 -0.10126017289E+02 -0.42491290049E+02  0.30219659028E+02  0.53115663866E+02  0.00000000000E+00 0. -1.
       -1    1    4    4    0  502  0.37188927453E+02  0.58628899565E+01  0.93253862426E+02  0.10056675724E+03  0.00000000000E+00 0.  1.
       -5    1    5    5    0  504 -0.11396135796E+03  0.23726248181E+02  0.11122450625E+03  0.16106863987E+03  0.47000000000E+01 0.  1.
       13    1    6    6    0    0  0.77804650656E+01  0.13181378920E+02  0.37157246081E+02  0.40186382311E+02  0.00000000000E+00 0. -1.
      -14    1    6    6    0    0 -0.19965465336E+02 -0.78613837226E+02  0.15184767329E+03  0.17215246467E+03  0.00000000000E+00 0.  1.
</event>
<event>
12   0  0.1523332E-01  0.1958541E+03  0.7957747E-01  0.1159410E+00
       21   -1    0    0  504  503  0.00000000000E+00  0.00000000000E+00  0.53215125443E+02  0.53215125443E+02  0.00000000000E+00 0. -1.
       21   -1    0    0  501  504  0.00000000000E+00  0.00000000000E+00 -0.10018010748E+04  0.10018010748E+04  0.00000000000E+00 0. -1.
        6    2    1    2  501    0 -0.71747373463E+02 -0.56067770062E+02 -0.75813112735E+03  0.78302084327E+03  0.17339998359E+03 0.  0.
       24    2    3    3    0    0 -0.49572098908E+02 -0.55942202113E+02 -0.24518264443E+03  0.26957172729E+03  0.83471336764E+02 0.  0.
       -6    2    1    2    0  503  0.71747373463E+02  0.56067770062E+02 -0.19045482202E+03  0.27199535698E+03  0.17151429838E+03 0.  0.
      -24    2    5    5    0    0 -0.93581653133E+01 -0.14232186869E+02 -0.10875122991E+03  0.13702217695E+03  0.81597282837E+02 0.  0.
        5    1    3    3  501    0 -0.22175274555E+02 -0.12556794941E+00 -0.51294848292E+03  0.51344911598E+03  0.47000000000E+01 0. -1.
      -11    1    4    4    0    0 -0.40166108282E+02  0.12807779483E+02 -0.80625238748E+02  0.90982331213E+02  0.00000000000E+00 0.  1.
       12    1    4    4    0    0 -0.94059906262E+01 -0.68749981596E+02 -0.16455740568E+03  0.17858939608E+03  0.00000000000E+00 0. -1.
       -5    1    5    5    0  503  0.81105538776E+02  0.70299956932E+02 -0.81703592102E+02  0.13497318003E+03  0.47000000000E+01 0.  1.
        1    1    6    6  502    0  0.32084251617E+02 -0.69895797938E+01 -0.19092972376E+02  0.37984141713E+02  0.00000000000E+00 0. -1.
       -2    1    6    6    0  502 -0.41442416930E+02 -0.72426070756E+01 -0.89658257539E+02  0.99038035235E+02  0.00000000000E+00 0.  1.
</event>
<event>
12   0  0.1523332E-01  0.1892022E+03  0.7957747E-01  0.1165105E+00
       21   -1    0    0  504  503  0.00000000000E+00  0.00000000000E+00  0.23898229810E+03  0.23898229810E+03  0.00000000000E+00 0. -1.
       21   -1    0    0  501  504  0.00000000000E+00  0.00000000000E+00 -0.79088009798E+03  0.79088009798E+03  0.00000000000E+00 0. -1.
        6    2    1    2  501    0 -0.77149335355E+02  0.84022495196E+01 -0.74008078923E+03  0.76300982253E+03  0.16864695948E+03 0.  0.
       24    2    3    3    0    0 -0.78089806827E+01  0.55909305434E+02 -0.46569032867E+03  0.47599550234E+03  0.80730449120E+02 0.  0.
       -6    2    1    2    0  503  0.77149335355E+02 -0.84022495196E+01  0.18818298935E+03  0.26685257356E+03  0.17255387794E+03 0.  0.
      -24    2    5    5    0    0  0.39956032610E+02 -0.43763744203E+02  0.19025495655E+03  0.21527583342E+03  0.81455424090E+02 0.  0.
        5    1    3    3  501    0 -0.69340354672E+02 -0.47507055914E+02 -0.27439046056E+03  0.28701432019E+03  0.47000000000E+01 0. -1.
      -13    1    4    4    0    0 -0.13361292337E+02  0.64062354125E+02 -0.20658033011E+03  0.21669781295E+03  0.00000000000E+00 0.  1.
       14    1    4    4    0    0  0.55523116544E+01 -0.81530486913E+01 -0.25910999857E+03  0.25929768939E+03  0.00000000000E+00 0. -1.
       -5    1    5    5    0  503  0.37193302744E+02  0.35361494683E+02 -0.20719672015E+01  0.51576740139E+02  0.47000000000E+01 0.  1.
        1    1    6    6  502    0  0.63060508918E+02 -0.18965961051E+02  0.13926614924E+03  0.15404997821E+03  0.00000000000E+00 0. -1.
       -2    1    6    6    0  502 -0.23104476308E+02 -0.24797783151E+02  0.50988807318E+02  0.61225855212E+02  0.00000000000E+00 0.  1.
</event>
<event>
12   0  0.1523332E-01  0.1783388E+03  0.7957747E-01  0.1174983E+00
       21   -1    0    0  504  503  0.00000000000E+00  0.00000000000E+00  0.46674546069E+03  0.46674546069E+03  0.00000000000E+00 0. -1.
       21   -1    0    0  501  504  0.00000000000E+00  0.00000000000E+00 -0.10701562569E+03  0.10701562569E+03  0.00000000000E+00 0. -1.
        6    2    1    2  501    0 -0.34135260409E+02  0.11859591031E+02  0.62500833738E+01  0.17844829104E+03  0.17463923708E+03 0.  0.
       24    2    3    3    0    0 -0.86097334924E+02 -0.16914589431E+02  0.11215951253E+02  0.11865899021E+03  0.79090479702E+02 0.  0.
       -6    2    1    2    0  503  0.34135260409E+02 -0.11859591031E+02  0.35347975163E+03  0.39531279534E+03  0.17325820454E+03 0.  0.
      -24    2    5    5    0    0 -0.25319122192E+02 -0.44307410108E+02  0.27741599647E+03  0.29335462047E+03  0.80579735133E+02 0.  0.
        5    1    3    3  501    0  0.51962074515E+02  0.28774180463E+02 -0.49658678788E+01  0.59789300824E+02  0.47000000000E+01 0. -1.
      -13    1    4    4    0    0  0.12292845443E+02 -0.13509719517E+02 -0.48720716709E+01  0.18904064454E+02  0.00000000000E+00 0.  1.
       14    1    4    4    0    0 -0.98390180367E+02 -0.34048699140E+01  0.16088022923E+02  0.99754925760E+02  0.00000000000E+00 0. -1.
       -5    1    5    5    0  503  0.59454382600E+02  0.32447819077E+02  0.76063755161E+02  0.10195817487E+03  0.47000000000E+01 0.  1.
        3    1    6    6  502    0 -0.42261072708E+02 -0.17745700251E+02  0.70742085781E+02  0.84293243172E+02  0.00000000000E+00 0. -1.
       -4    1    6    6    0  502  0.16941950516E+02 -0.26561709858E+02  0.20667391069E+03  0.20906137730E+03  0.00000000000E+00 0.  1.
</event>
<event>
12   0  0.1523332E-01  0.2065814E+03  0.7957747E-01  0.1150729E+00
       21   -1    0    0  504  503  0.00000000000E+00  0.00000000000E+00  0.20405455409E+03  0.20405455409E+03  0.00000000000E+00 0.  1.
       21   -1    0    0  501  504  0.00000000000E+00  0.00000000000E+00 -0.20692546803E+03  0.20692546803E+03  0.00000000000E+00 0. -1.
        6    2    1    2  501    0 -0.49536137575E+02 -0.10263966792E+03  0.18142172401E+01  0.20434550777E+03  0.16960266744E+03 0.  0.
       24    2    3    3    0    0  0.19464960507E+02 -0.82490432941E+02 -0.35998278977E+02  0.12298815975E+03  0.81527020884E+02 0.  0.
       -6    2    1    2    0  503  0.49536137575E+02  0.10263966792E+03 -0.46851311873E+01  0.20663451435E+03  0.17229956967E+03 0.  0.
      -24    2    5    5    0    0  0.25217204119E+02  0.33197326898E+02  0.60564093589E+02  0.10818046118E+03  0.79353845860E+02 0.  0.
        5    1    3    3  501    0 -0.69001098082E+02 -0.20149234980E+02  0.37812496217E+02  0.81357348021E+02  0.47000000000E+01 0. -1.
      -13    1    4    4    0    0  0.11180172559E+02 -0.15834986563E+02 -0.50656844932E+02  0.54238906667E+02  0.00000000000E+00 0.  1.
       14    1    4    4    0    0  0.82847879485E+01 -0.66655446378E+02  0.14658565955E+02  0.68749253080E+02  0.00000000000E+00 0. -1.
       -5    1    5    5    0  503  0.24318933456E+02  0.69442341023E+02 -0.65249224776E+02  0.98454053167E+02  0.47000000000E+01 0.  1.
        1    1    6    6  502    0  0.28212302471E+02 -0.20035935714E+02  0.13775085385E+02  0.37244136559E+02  0.00000000000E+00 0. -1.
       -2    1    6    6    0  502 -0.29950983515E+01  0.53233262612E+02  0.46789008204E+02  0.70936324624E+02  0.00000000000E+00 0.  1.
</event>
<event>
12   0  0.1523332E-01  0.3365825E+03  0.7957747E-01  0.1076916E+00
       21   -1    0    0  501  503  0.00000000000E+00  0.00000000000E+00  0.88058794945E+03  0.88058794945E+03  0.00000000000E+00 0.  1.
       21   -1    0    0  503  504  0.00000000000E+00  0.00000000000E+00 -0.40768299978E+03  0.40768299978E+03  0.00000000000E+00 0.  1.
        6    2    1    2  501    0 -0.60800950294E+02  0.28125941589E+03  0.76963654299E+03  0.83956456450E+03  0.17240833818E+03 0.  0.
       24    2    3    3    0    0 -0.42799642097E+02  0.29639408168E+03  0.69024895367E+03  0.75663336083E+03  0.79807040108E+02 0.  0.
       -6    2    1    2    0  504  0.60800950294E+02 -0.28125941589E+03 -0.29673159332E+03  0.44870638473E+03  0.17459715530E+03 0.  0.
      -24    2    5    5    0    0  0.63974126636E+02 -0.21300834064E+03 -0.14751387543E+03  0.28452265943E+03  0.98628384472E+02 0.  0.
        5    1    3    3  501    0 -0.18001308197E+02 -0.15134665785E+02  0.79387589316E+02  0.82931203673E+02  0.47000000000E+01 0. -1.
        2    1    4    4  502    0  0.98611752429E+01  0.18003227503E+03  0.36215555310E+03  0.40455593861E+03  0.00000000000E+00 0. -1.
       -1    1    4    4    0  502 -0.52660817340E+02  0.11636180665E+03  0.32809340058E+03  0.35207742221E+03  0.00000000000E+00 0.  1.
       -5    1    5    5    0  504 -0.31731763416E+01 -0.68251075253E+02 -0.14921771789E+03  0.16418372530E+03  0.47000000000E+01 0.  1.
       11    1    6    6    0    0  0.44575802786E+01 -0.16949192661E+03 -0.10127511665E+03  0.19749438590E+03  0.00000000000E+00 0. -1.
      -12    1    6    6    0    0  0.59516546357E+02 -0.43516414022E+02 -0.46238758784E+02  0.87028273530E+02  0.00000000000E+00 0.  1.
</event>
<event>
12   0  0.1523332E-01  0.1759469E+03  0.7957747E-01  0.1177262E+00
       21   -1    0    0  501  503  0.00000000000E+00  0.00000000000E+00  0.35076805398E+03  0.35076805398E+03  0.00000000000E+00 0.  1.
       21   -1    0    0  503  504  0.00000000000E+00  0.00000000000E+00 -0.15111550369E+03  0.15111550369E+03  0.00000000000E+00 0.  1.
        6    2    1    2  501    0  0.58404486577E+01  0.67677945904E+01  0.27533340790E+03  0.32675033686E+03  0.17571961543E+03 0.  0.
       24    2    3    3    0    0  0.21710433739E+02  0.34378368684E+02  0.28012131671E+03  0.29420476421E+03  0.80220172308E+02 0.  0.
       -6    2    1    2    0  504 -0.58404486577E+01 -0.67677945904E+01 -0.75680857617E+02  0.17513322081E+03  0.15768366731E+03 0.  0.
      -24    2    5    5    0    0  0.13959174033E+02  0.21895830356E+02  0.74572817414E+01  0.84868783352E+02  0.80453796741E+02 0.  0.
        5    1    3    3  501    0 -0.15869985081E+02 -0.27610574094E+02 -0.47879088067E+01  0.32545572648E+02  0.47000000000E+01 0. -1.
        2    1    4    4  502    0 -0.27321016103E+02  0.29909724326E+02  0.11694623145E+03  0.12376368846E+03  0.00000000000E+00 0. -1.
       -1    1    4    4    0  502  0.49031449842E+02  0.44686443582E+01  0.16317508525E+03  0.17044107575E+03  0.00000000000E+00 0.  1.
       -5    1    5    5    0  504 -0.19799622690E+02 -0.28663624946E+02 -0.83138139358E+02  0.90264437458E+02  0.47000000000E+01 0.  1.
       13    1    6    6    0    0  0.11436152448E+02  0.39220169902E+02 -0.25067840721E+02  0.47931241882E+02  0.00000000000E+00 0. -1.
      -14    1    6    6    0    0  0.25230215848E+01 -0.17324339547E+02  0.32525122462E+02  0.36937541470E+02  0.00000000000E+00 0.  1.
</event>
<event>
12   0  0.1523332E-01  0.2357902E+03  0.7957747E-01  0.1129751E+00
       -2   -1    0    0    0  501  0.00000000000E+00  0.00000000000E+00  0.81068176248E+02  0.81068176248E+02  0.00000000000E+00 0.  1.
        2   -1    0    0  502    0  0.00000000000E+00  0.00000000000E+00 -0.72187472913E+03  0.72187472913E+03  0.00000000000E+00 0. -1.
        6    2    1    2  502    0  0.15770214658E+03  0.27538811202E+02 -0.23075318036E+03  0.32996559192E+03  0.17321058988E+03 0.  0.
       24    2    3    3    0    0  0.34035942768E+02  0.53466626438E+02 -0.68318090029E+02  0.12411897393E+03  0.81981904837E+02 0.  0.
       -6    2    1    2    0  501 -0.15770214658E+03 -0.27538811202E+02 -0.41005337253E+03  0.47297731346E+03  0.17301854689E+03 0.  0.
      -24    2    5    5    0    0 -0.17027676218E+03 -0.50948717236E+02 -0.28854424756E+03  0.34850762997E+03  0.81300909099E+02 0.  0.
        5    1    3    3  502    0  0.12366620381E+03 -0.25927815236E+02 -0.16243509033E+03  0.20584661799E+03  0.47000000000E+01 0. -1.
        4    1    4    4  503    0 -0.16536914844E+02  0.45381646266E+02 -0.50532766726E+02  0.69903675750E+02  0.00000000000E+00 0. -1.
       -3    1    4    4    0  503  0.50572857612E+02  0.80849801721E+01 -0.17785323303E+02  0.54215298177E+02  0.00000000000E+00 0.  1.
       -5    1    5    5    0  501  0.12574615600E+02  0.23409906034E+02 -0.12150912497E+03  0.12446968349E+03  0.47000000000E+01 0.  1.
       11    1    6    6    0    0 -0.34495772680E+02  0.13982893788E+02 -0.10345999064E+03  0.10995203188E+03  0.00000000000E+00 0. -1.
      -12    1    6    6    0    0 -0.13578098950E+03 -0.64931611024E+02 -0.18508425692E+03  0.23855559809E+03  0.00000000000E+00 0.  1.
</event>
<event>
12   0  0.1523332E-01  0.2022333E+03  0.7957747E-01  0.1154177E+00
       21   -1    0    0  501  503  0.00000000000E+00  0.00000000000E+00  0.64822751014E+03  0.64822751014E+03  0.00000000000E+00 0.  1.
       21   -1    0    0  503  504  0.00000000000E+00  0.00000000000E+00 -0.64781786990E+02  0.64781786990E+02  0.00000000000E+00 0.  1.
        6    2    1    2  501    0  0.67705111027E+02  0.81948140309E+02  0.35965060032E+03  0.41137610992E+03  0.16906291652E+03 0.  0.
       24    2    3    3    0    0  0.10435815256E+03  0.43076652918E+02  0.30209860202E+03  0.33270743449E+03  0.81758483304E+02 0.  0.
       -6    2    1    2    0  504 -0.67705111027E+02 -0.81948140309E+02  0.22379512282E+03  0.30163318721E+03  0.17204314245E+03 0.  0.
      -24    2    5    5    0    0 -0.19221087518E+02  0.90514353652E+01  0.43289306577E+02  0.93700354283E+02  0.80339365452E+02 0.  0.
        5    1    3    3  501    0 -0.36653041530E+02  0.38871487391E+02  0.57551998306E+02  0.78668675433E+02  0.47000000000E+01 0. -1.
      -11    1    4    4    0    0  0.54880347263E+02  0.36428528632E+02  0.73396970514E+02  0.98620512545E+02  0.00000000000E+00 0.  1.
       12    1    4    4    0    0  0.49477805293E+02  0.66481242860E+01  0.22870163150E+03  0.23408692194E+03  0.00000000000E+00 0. -1.
       -5    1    5    5    0  504 -0.48484023509E+02 -0.90999575674E+02  0.18050581625E+03  0.20793283292E+03  0.47000000000E+01 0.  1.
        3    1    6    6  502    0  0.27560037945E+02 -0.62285317127E+01  0.32962608723E+02  0.43415249310E+02  0.00000000000E+00 0. -1.
       -4    1    6    6    0  502 -0.46781125463E+02  0.15279967078E+02  0.10326697854E+02  0.50285104972E+02  0.00000000000E+00 0.  1.
</event>
<event>
12   0  0.1523332E-01  0.1732065E+03  0.7957747E-01  0.1179923E+00
       21   -1    0    0  501  503  0.00000000000E+00  0.00000000000E+00  0.43087402847E+03  0.43087402847E+03  0.00000000000E+00 0. -1.
       21   -1    0    0  503  504  0.00000000000E+00  0.00000000000E+00 -0.10312957102E+03  0.10312957102E+03  0.00000000000E+00 0. -1.
        6    2    1    2  501    0 -0.33871792593E+01  0.89138195660E+01  0.32231057759E+03  0.36590243352E+03  0.17294378643E+03 0.  0.
       24    2    3    3    0    0 -0.25933735282E+02 -0.39199527999E+02  0.97566744089E+02  0.13491515659E+03  0.80459109527E+02 0.  0.
       -6    2    1    2    0  504  0.33871792593E+01 -0.89138195660E+01  0.54338798638E+01  0.16810116597E+03  0.16774249846E+03 0.  0.
      -24    2    5    5    0    0 -0.51242780418E+02 -0.20324806420E+02 -0.28344083108E+02  0.10269716076E+03  0.81880397410E+02 0.  0.
        5    1    3    3  501    0  0.22546556023E+02  0.48113347565E+02  0.22474383350E+03  0.23098727692E+03  0.47000000000E+01 0. -1.
        4    1    4    4  502    0 -0.12573602216E+02 -0.56592722996E+02  0.96966418833E+02  0.11297485627E+03  0.00000000000E+00 0. -1.
       -3    1    4    4    0  502 -0.13360133066E+02  0.17393194997E+02  0.60032525556E+00  0.21940300321E+02  0.00000000000E+00 0.  1.
       -5    1    5    5    0  504  0.54629959677E+02  0.11410986854E+02  0.33777962972E+02  0.65404005212E+02  0.47000000000E+01 0.  1.
       13    1    6    6    0    0 -0.59787332862E+02  0.54150405314E+01  0.43842642073E+01  0.60191939721E+02  0.00000000000E+00 0. -1.
      -14    1    6    6    0    0  0.85445524444E+01 -0.25739846952E+02 -0.32728347316E+02  0.42505221039E+02  0.00000000000E+00 0.  1.
</event>
<event>
12   0  0.1523332E-01  0.2039869E+03  0.7957747E-01  0.1152775E+00
       21   -1    0    0  504  503  0.00000000000E+00  0.00000000000E+00  0.14993938802E+03  0.14993938802E+03  0.00000000000E+00 0.  1.
       21   -1    0    0  501  504  0.00000000000E+00  0.00000000000E+00 -0.30316996093E+03  0.30316996093E+03  0.00000000000E+00 0.  1.
        6    2    1    2  501    0 -0.72201313911E+02 -0.80117232872E+02 -0.83990720996E+01  0.20415974984E+03  0.17314403919E+03 0.  0.
       24    2    3    3    0    0 -0.10715936581E+03 -0.47272302180E+02  0.26595336496E+02  0.14459840753E+03  0.80520725916E+02 0.  0.
       -6    2    1    2    0  503  0.72201313911E+02  0.80117232872E+02 -0.14483150081E+03  0.24894959911E+03  0.17137076337E+03 0.  0.
      -24    2    5    5    0    0  0.79234114896E+01  0.34818180494E+02 -0.14544447334E+03  0.17017067667E+03  0.80801474174E+02 0.  0.
        5    1    3    3  501    0  0.34958051900E+02 -0.32844930692E+02 -0.34994408595E+02  0.59561342310E+02  0.47000000000E+01 0. -1.
      -11    1    4    4    0    0 -0.72962264897E+02 -0.50580362515E+02  0.51065172312E+02  0.10241834306E+03  0.00000000000E+00 0.  1.
       12    1    4    4    0    0 -0.34197100913E+02  0.33080603345E+01 -0.24469835816E+02  0.42180064473E+02  0.00000000000E+00 0. -1.
       -5    1    5    5    0  503  0.64277902421E+02  0.45299052378E+02  0.61297253592E+00  0.78778922443E+02  0.47000000000E+01 0.  1.
        3    1    6    6  502    0 -0.26678046293E+02 -0.12546826983E+02 -0.54177770212E+02  0.61679589870E+02  0.00000000000E+00 0. -1.
       -4    1    6    6    0  502  0.34601457782E+02  0.47365007478E+02 -0.91266703131E+02  0.10849108680E+03  0.00000000000E+00 0.  1.
</event>
<event>
12   0  0.1523332E-01  0.2236766E+03  0.7957747E-01  0.1138025E+00
       21   -1    0    0  501  503  0.00000000000E+00  0.00000000000E+00  0.22512015880E+03  0.22512015880E+03  0.00000000000E+00 0.  1.
       21   -1    0    0  503  504  0.00000000000E+00  0.00000000000E+00 -0.24064383502E+03  0.24064383502E+03  0.00000000000E+00 0.  1.
        6    2    1    2  501    0  0.27462058082E+02 -0.13886500382E+03 -0.73212134085E+02  0.23535340001E+03  0.17318646714E+03 0.  0.
       24    2    3    3    0    0  0.36590750695E+02 -0.54817550347E+01 -0.24844585142E+02  0.93100337208E+02  0.81740361528E+02 0.  0.
       -6    2    1    2    0  504 -0.27462058082E+02  0.13886500382E+03  0.57688457865E+02  0.23041059381E+03  0.17240484230E+03 0.  0.
      -24    2    5    5    0    0  0.14493059379E+02  0.11934801602E+03  0.92528059571E+02  0.17229835292E+03  0.81677921822E+02 0.  0.
        5    1    3    3  501    0 -0.91286926136E+01 -0.13338324879E+03 -0.48367548943E+02  0.14225306281E+03  0.47000000000E+01 0. -1.
      -13    1    4    4    0    0  0.50339083288E+02 -0.30624958571E+02 -0.26036488292E+02  0.64419019834E+02  0.00000000000E+00 0.  1.
       14    1    4    4    0    0 -0.13748332593E+02  0.25143203537E+02  0.11919031502E+01  0.28681317374E+02  0.00000000000E+00 0. -1.
       -5    1    5    5    0  504 -0.41955117461E+02  0.19516987808E+02 -0.34839601706E+02  0.58112240890E+02  0.47000000000E+01 0.  1.
        3    1    6    6  502    0  0.26102789421E+02  0.45232338325E+02  0.81032496616E+02  0.96403244519E+02  0.00000000000E+00 0. -1.
       -4    1    6    6    0  502 -0.11609730042E+02  0.74115677692E+02  0.11495562955E+02  0.75895108400E+02  0.00000000000E+00 0.  1.
</event>
<event>
12   0  0.1523332E-01  0.2014394E+03  0.7957747E-01  0.1154816E+00
        1   -1    0    0  502    0  0.00000000000E+00  0.00000000000E+00  0.16404517844E+03  0.16404517844E+03  0.00000000000E+00 0. -1.
       -1   -1    0    0    0  501  0.00000000000E+00  0.00000000000E+00 -0.34924600087E+03  0.34924600087E+03  0.00000000000E+00 0.  1.
        6    2    1    2  502    0 -0.31234047041E+02  0.10319199674E+03 -0.23172664699E+03  0.30809358118E+03  0.17204726663E+03 0.  0.
       24    2    3    3    0    0  0.29075834898E+02  0.60554069325E+01 -0.12356943466E+03  0.15063605828E+03  0.80868688284E+02 0.  0.
       -6    2    1    2    0  501  0.31234047041E+02 -0.10319199674E+03  0.46525824549E+02  0.20519759813E+03  0.16827729509E+03 0.  0.
      -24    2    5    5    0    0 -0.36046779711E+02 -0.29446796229E+02  0.49851062915E+02  0.10520654125E+03  0.80104954353E+02 0.  0.
        5    1    3    3  502    0 -0.60309881939E+02  0.97136589803E+02 -0.10815721233E+03  0.15745752290E+03  0.47000000000E+01 0. -1.
      -11    1    4    4    0    0 -0.24956715410E+02 -0.13748234018E+02 -0.37398960890E+02  0.47016314810E+02  0.00000000000E+00 0.  1.
       12    1    4    4    0    0  0.54032550308E+02  0.19803640951E+02 -0.86170473768E+02  0.10361974347E+03  0.00000000000E+00 0. -1.
       -5    1    5    5    0  501  0.67280826752E+02 -0.73745200506E+02 -0.33252383653E+01  0.99991056882E+02  0.47000000000E+01 0.  1.
        3    1    6    6  503    0 -0.55672039941E+01 -0.23180130484E+02  0.65982220030E+02  0.70156721486E+02  0.00000000000E+00 0. -1.
       -4    1    6    6    0  503 -0.30479575717E+02 -0.62666657449E+01 -0.16131157115E+02  0.35049819762E+02  0.00000000000E+00 0.  1.
</event>
<event>
12   0  0.1523332E-01  0.1834639E+03  0.7957747E-01  0.1170229E+00
       21   -1    0    0  504  503  0.00000000000E+00  0.00000000000E+00  0.62605516360E+02  0.62605516360E+02  0.00000000000E+00 0. -1.
       21   -1    0    0  501  504  0.00000000000E+00  0.00000000000E+00 -0.53479823829E+03  0.53479823829E+03  0.00000000000E+00 0. -1.
        6    2    1    2  501    0  0.45426749887E+02 -0.34914697521E+02 -0.23058304839E+03  0.29403230578E+03  0.17321613357E+03 0.  0.
       24    2    3    3    0    0  0.36556063260E+02 -0.83968523664E+02 -0.20280532083E+03  0.23677272938E+03  0.80896653172E+02 0.  0.
       -6    2    1    2    0  503 -0.45426749887E+02  0.34914697521E+02 -0.24160967354E+03  0.30337144887E+03  0.17428819792E+03 0.  0.
      -24    2    5    5    0    0 -0.10971339121E+02  0.57623866048E+02 -0.64636136989E+02  0.12158969977E+03  0.84648358907E+02 0.  0.
        5    1    3    3  501    0  0.88706866267E+01  0.49053826143E+02 -0.27777727555E+02  0.57259576392E+02  0.47000000000E+01 0. -1.
        4    1    4    4  502    0  0.11960336052E+02 -0.16601828939E+02 -0.13986614809E+03  0.14135490704E+03  0.00000000000E+00 0. -1.
       -3    1    4    4    0  502  0.24595727208E+02 -0.67366694725E+02 -0.62939172738E+02  0.95417822340E+02  0.00000000000E+00 0.  1.
       -5    1    5    5    0  503 -0.34455410765E+02 -0.22709168526E+02 -0.17697353655E+03  0.18178174910E+03  0.47000000000E+01 0.  1.
       11    1    6    6    0    0 -0.38253579482E+02  0.17925497803E+02 -0.59746160853E+02  0.73172833424E+02  0.00000000000E+00 0. -1.
      -12    1    6    6    0    0  0.27282240361E+02  0.39698368245E+02 -0.48899761360E+01  0.48416866349E+02  0.00000000000E+00 0.  1.
</event>
<event>
12   0  0.1523332E-01  0.1783792E+03  0.7957747E-01  0.1174945E+00
       -3   -1    0    0    0  501  0.00000000000E+00  0.00000000000E+00  0.11094650680E+04  0.11094650680E+04  0.00000000000E+00 0. -1.
        3   -1    0    0  502    0  0.00000000000E+00  0.00000000000E+00 -0.34883046040E+02  0.34883046040E+02  0.00000000000E+00 0.  1.
        6    2    1    2  502    0  0.31198269037E+02 -0.33862645297E+02  0.77706840250E+03  0.79714419048E+03  0.17170773869E+03 0.  0.
       24    2    3    3    0    0  0.82581723875E+02 -0.29426868472E+02  0.40689727775E+03  0.42336793770E+03  0.77390789686E+02 0.  0.
       -6    2    1    2    0  501 -0.31198269037E+02  0.33862645297E+02  0.29751361951E+03  0.34720392360E+03  0.17296300192E+03 0.  0.
      -24    2    5    5    0    0 -0.32767443253E+02  0.11979143700E+02  0.31037784539E+03  0.32134027620E+03  0.75551048818E+02 0.  0.
        5    1    3    3  502    0 -0.51383454838E+02 -0.44357768242E+01  0.37017112475E+03  0.37377625278E+03  0.47000000000E+01 0. -1.
        4    1    4    4  503    0  0.52342624996E+02 -0.39378142251E+02  0.36455901203E+03  0.37039662759E+03  0.00000000000E+00 0. -1.
       -3    1    4    4    0  503  0.30239098879E+02  0.99512737792E+01  0.42338265724E+02  0.52971310115E+02  0.00000000000E+00 0.  1.
       -5    1    5    5    0  501  0.15691742163E+01  0.21883501596E+02 -0.12864225876E+02  0.25863647408E+02  0.47000000000E+01 0.  1.
       11    1    6    6    0    0 -0.31349696977E+02 -0.24323423446E+02  0.95536384842E+02  0.10344869867E+03  0.00000000000E+00 0. -1.
      -12    1    6    6    0    0 -0.14177462766E+01  0.36302567146E+02  0.21484146055E+03  0.21789157752E+03  0.00000000000E+00 0.  1.
</event>
<event>
12   0  0.1523332E-01  0.1959189E+03  0.7957747E-01  0.1159356E+00
       21   -1    0    0  501  503  0.00000000000E+00  0.00000000000E+00  0.63115653995E+03  0.63115653995E+03  0.00000000000E+00 0.  1.
       21   -1    0    0  503  504  0.00000000000E+00  0.00000000000E+00 -0.62306999970E+02  0.62306999970E+02  0.00000000000E+00 0. -1.
        6    2    1    2  501    0  0.65778517511E+02  0.18344792425E+02  0.20010231759E+03  0.28004490429E+03  0.18363242126E+03 0.  0.
       24    2    3    3    0    0  0.89694649128E+02 -0.32935114895E+02  0.17352119454E+03  0.21735314767E+03  0.89459118987E+02 0.  0.
       -6    2    1    2    0  504 -0.65778517511E+02 -0.18344792425E+02  0.36874722239E+03  0.41341863563E+03  0.17400318816E+03 0.  0.
      -24    2    5    5    0    0  0.40617857722E+00  0.21422707138E+02  0.83859501183E+02  0.11821536378E+03  0.80519307822E+02 0.  0.
        5    1    3    3  501    0 -0.23916131617E+02  0.51279907320E+02  0.26581123049E+02  0.62691756625E+02  0.47000000000E+01 0. -1.
        4    1    4    4  502    0  0.27370517917E+02 -0.57499813175E+02  0.90867339326E+02  0.11096056562E+03  0.00000000000E+00 0. -1.
       -3    1    4    4    0  502  0.62324131210E+02  0.24564698280E+02  0.82653855215E+02  0.10639258205E+03  0.00000000000E+00 0.  1.
       -5    1    5    5    0  504 -0.66184696088E+02 -0.39767499563E+02  0.28488772121E+03  0.29520327185E+03  0.47000000000E+01 0.  1.
       11    1    6    6    0    0  0.37132251693E+02 -0.54153283228E+01  0.43001605903E+02  0.57072480294E+02  0.00000000000E+00 0. -1.
      -12    1    6    6    0    0 -0.36726073116E+02  0.26838035461E+02  0.40857895279E+02  0.61142883483E+02  0.00000000000E+00 0.  1.
</event>
<event>
12   0  0.1523332E-01  0.2030454E+03  0.7957747E-01  0.1153525E+00
       21   -1    0    0  504  503  0.00000000000E+00  0.00000000000E+00  0.21823332698E+03  0.21823332698E+03  0.00000000000E+00 0. -1.
       21   -1    0    0  501  504  0.00000000000E+00  0.00000000000E+00 -0.19857326448E+03  0.19857326448E+03  0.00000000000E+00 0.  1.
        6    2    1    2  501    0 -0.19104425100E+02  0.10691223053E+03  0.56820918716E+02  0.21038862404E+03  0.17099576669E+03 0.  0.
       24    2    3    3    0    0  0.10156896619E+02  0.13736534813E+03  0.42013474484E+02  0.16538898265E+03  0.81338687775E+02 0.  0.
       -6    2    1    2    0  503  0.19104425100E+02 -0.10691223053E+03 -0.37160856217E+02  0.20641796743E+03  0.17155828148E+03 0.  0.
      -24    2    5    5    0    0  0.11049492701E+02 -0.48884346151E+02  0.45705296392E+02  0.10482561264E+03  0.79922865067E+02 0.  0.
        5    1    3    3  501    0 -0.29261321719E+02 -0.30453117598E+02  0.14807444232E+02  0.44999641386E+02  0.47000000000E+01 0. -1.
        2    1    4    4  502    0  0.27614627346E+02  0.71283314648E+02  0.57073238752E+02  0.95400383502E+02  0.00000000000E+00 0. -1.
       -1    1    4    4    0  502 -0.17457730727E+02  0.66082033484E+02 -0.15059764268E+02  0.69988599152E+02  0.00000000000E+00 0.  1.
       -5    1    5    5    0  503  0.80549323983E+01 -0.58027884383E+02 -0.82866152609E+02  0.10159235478E+03  0.47000000000E+01 0.  1.
       11    1    6    6    0    0 -0.27443230484E+02 -0.43575789661E+02  0.40717404808E+02  0.65649732659E+02  0.00000000000E+00 0. -1.
      -12    1    6    6    0    0  0.38492723185E+02 -0.53085564898E+01  0.49878915840E+01  0.39175879986E+02  0.00000000000E+00 0.  1.
</event>
<event>
12   0  0.1523332E-01  0.1948167E+03  0.7957747E-01  0.1160282E+00
       -2   -1    0    0    0  501  0.00000000000E+00  0.00000000000E+00  0.38977616098E+02  0.38977616098E+02  0.00000000000E+00 0. -1.
        2   -1    0    0  502    0  0.00000000000E+00  0.00000000000E+00 -0.14130298481E+04  0.14130298481E+04  0.00000000000E+00 0.  1.
        6    2    1    2  502    0  0.18859230858E+02 -0.86539157946E+02 -0.28390748363E+03  0.34471304795E+03  0.17429552409E+03 0.  0.
       24    2    3    3    0    0  0.62309727289E+02 -0.83161146997E+02 -0.13014228327E+03  0.18482188672E+03  0.80148845472E+02 0.  0.
       -6    2    1    2    0  501 -0.18859230858E+02  0.86539157946E+02 -0.10901447484E+04  0.11072944163E+04  0.17274448012E+03 0.  0.
      -24    2    5    5    0    0 -0.43222896763E+02  0.11715116076E+03 -0.73114421441E+03  0.74613772405E+03  0.80975476053E+02 0.  0.
        5    1    3    3  502    0 -0.43450496431E+02 -0.33780109491E+01 -0.15376520035E+03  0.15989116123E+03  0.47000000000E+01 0. -1.
      -13    1    4    4    0    0  0.39127352932E+02 -0.62633603394E+02 -0.13460919371E+03  0.15353681335E+03  0.00000000000E+00 0.  1.
       14    1    4    4    0    0  0.23182374357E+02 -0.20527543602E+02  0.44669104352E+01  0.31285073374E+02  0.00000000000E+00 0. -1.
       -5    1    5    5    0  501  0.24363665905E+02 -0.30612002811E+02 -0.35900053399E+03  0.36115669222E+03  0.47000000000E+01 0.  1.
        3    1    6    6  503    0  0.21165449869E+02  0.10750970119E+02 -0.92550149437E+02  0.95546270401E+02  0.00000000000E+00 0. -1.
       -4    1    6    6    0  503 -0.64388346633E+02  0.10640019064E+03 -0.63859406497E+03  0.65059145365E+03  0.00000000000E+00 0.  1.
</event>
<event>
12   0  0.1523332E-01  0.1868304E+03  0.7957747E-01  0.1167199E+00
       21   -1    0    0  504  503  0.00000000000E+00  0.00000000000E+00  0.39875055203E+02  0.39875055203E+02  0.00000000000E+00 0. -1.
       21   -1    0    0  501  504  0.00000000000E+00  0.00000000000E+00 -0.90500687731E+03  0.90500687731E+03  0.00000000000E+00 0. -1.
        6    2    1    2  501    0  0.12689897125E+01  0.70216857683E+02 -0.33199277407E+03  0.37995465342E+03  0.17092196812E+03 0.  0.
       24    2    3    3    0    0  0.19398921891E+02  0.50662918041E+02 -0.77814110516E+02  0.12433788167E+03  0.80385468755E+02 0.  0.
       -6    2    1    2    0  503 -0.12689897125E+01 -0.70216857683E+02 -0.53313904803E+03  0.56492727909E+03  0.17312876330E+03 0.  0.
      -24    2    5    5    0    0 -0.20297676904E+02 -0.10248189940E+03 -0.49108694341E+03  0.50841539222E+03  0.80033053627E+02 0.  0.
        5    1    3    3  501    0 -0.18129932178E+02  0.19553939642E+02 -0.25417866356E+03  0.25561677176E+03  0.47000000000E+01 0. -1.
      -13    1    4    4    0    0 -0.18659611881E+02  0.10461282593E+02  0.74726769480E+01  0.22659665703E+02  0.00000000000E+00 0.  1.
       14    1    4    4    0    0  0.38058533772E+02  0.40201635448E+02 -0.85286787464E+02  0.10167821596E+03  0.00000000000E+00 0. -1.
       -5    1    5    5    0  503  0.19028687192E+02  0.32265041718E+02 -0.42052104627E+02  0.56511886864E+02  0.47000000000E+01 0.  1.
        3    1    6    6  502    0  0.71107546152E+01 -0.64848522874E+02 -0.14237715211E+03  0.15661145295E+03  0.00000000000E+00 0. -1.
       -4    1    6    6    0  502 -0.27408431519E+02 -0.37633376528E+02 -0.34870979129E+03  0.35180393928E+03  0.00000000000E+00 0.  1.
</event>
<event>
12   0  0.1523332E-01  0.2339686E+03  0.7957747E-01  0.1130960E+00
       21   -1    0    0  501  503  0.00000000000E+00  0.00000000000E+00  0.12484270806E+03  0.12484270806E+03  0.00000000000E+00 0.  1.
       21   -1    0    0  503  504  0.00000000000E+00  0.00000000000E+00 -0.44273572490E+03  0.44273572490E+03  0.00000000000E+00 0.  1.
        6    2    1    2  501    0 -0.15670107790E+03  0.92940722147E+01 -0.19183051211E+03  0.30255620686E+03  0.17349266653E+03 0.  0.
       24    2    3    3    0    0 -0.83268682196E+02 -0.56360804630E+02 -0.66655451799E+02  0.14320199349E+03  0.77159885647E+02 0.  0.
       -6    2    1    2    0  504  0.15670107790E+03 -0.92940722147E+01 -0.12606250472E+03  0.26502222610E+03  0.17234679468E+03 0.  0.
      -24    2    5    5    0    0  0.37746249830E+02  0.38814865543E+02 -0.17166571104E+02  0.96662090167E+02  0.78214419058E+02 0.  0.
        5    1    3    3  501    0 -0.73432395708E+02  0.65654876845E+02 -0.12517506032E+03  0.15935421337E+03  0.47000000000E+01 0. -1.
        4    1    4    4  502    0 -0.85914246619E+02 -0.19946163041E+02 -0.58365143441E+02  0.10576198353E+03  0.00000000000E+00 0. -1.
       -3    1    4    4    0  502  0.26455644233E+01 -0.36414641589E+02 -0.82903083579E+01  0.37440009960E+02  0.00000000000E+00 0.  1.
       -5    1    5    5    0  504  0.11895482807E+03 -0.48108937757E+02 -0.10889593362E+03  0.16836013594E+03  0.47000000000E+01 0.  1.
       13    1    6    6    0    0 -0.71797978074E+01  0.45156834176E+02 -0.22532297026E+02  0.50974440445E+02  0.00000000000E+00 0. -1.
      -14    1    6    6    0    0  0.44926047637E+02 -0.63419686338E+01  0.53657259219E+01  0.45687649722E+02  0.00000000000E+00 0.  1.
</event>
<event>
12   0  0.1523332E-01  0.2187100E+03  0.7957747E-01  0.1141584E+00
       21   -1    0    0  501  503  0.00000000000E+00  0.00000000000E+00  0.68227073814E+02  0.68227073814E+02  0.00000000000E+00 0.  1.
       21   -1    0    0  503  504  0.00000000000E+00  0.00000000000E+00 -0.84053595001E+03  0.84053595001E+03  0.00000000000E+00 0.  1.
        6    2    1    2  501    0  0.87118061928E+02  0.88437310531E+02 -0.19315329064E+03  0.29179143193E+03  0.18006479792E+03 0.  0.
       24    2    3    3    0    0  0.10082550133E+03  0.81193462163E+01 -0.84399035182E+02  0.15581920179E+03  0.83214908564E+02 0.  0.
       -6    2    1    2    0  504 -0.87118061928E+02 -0.88437310531E+02 -0.57915558556E+03  0.61697159190E+03  0.17269058550E+03 0.  0.
      -24    2    5    5    0    0 -0.10958464310E+03 -0.91643232251E+02 -0.33835360512E+03  0.37505691895E+03  0.76008251773E+02 0.  0.
        5    1    3    3  501    0 -0.13707439399E+02  0.80317964315E+02 -0.10875425546E+03  0.13597223013E+03  0.47000000000E+01 0. -1.
        2    1    4    4  502    0  0.33967847314E+01 -0.26250904874E+02 -0.91504434621E+01  0.28006762911E+02  0.00000000000E+00 0. -1.
       -1    1    4    4    0  502  0.97428716595E+02  0.34370251090E+02 -0.75248591720E+02  0.12781243888E+03  0.00000000000E+00 0.  1.
       -5    1    5    5    0  504  0.22466581170E+02  0.32059217201E+01 -0.24080198044E+03  0.24191467294E+03  0.47000000000E+01 0.  1.
       11    1    6    6    0    0 -0.43158349389E+02 -0.11509072685E+02 -0.43409603961E+02  0.62285596988E+02  0.00000000000E+00 0. -1.
      -12    1    6    6    0    0 -0.66426293709E+02 -0.80134159566E+02 -0.29494400116E+03  0.31277132197E+03  0.00000000000E+00 0.  1.
</event>
<event>
12   0  0.1523332E-01  0.2565659E+03  0.7957747E-01  0.1116751E+00
       21   -1    0    0  501  503  0.00000000000E+00  0.00000000000E+00  0.53439085706E+03  0.53439085706E+03  0.00000000000E+00 0. -1.
       21   -1    0    0  503  504  0.00000000000E+00  0.00000000000E+00 -0.40281027506E+03  0.40281027506E+03  0.00000000000E+00 0.  1.
        6    2    1    2  501    0  0.18694137633E+02  0.18820002962E+03  0.45625888911E+03  0.52338711113E+03  0.17318536969E+03 0.  0.
       24    2    3    3    0    0  0.53867196431E+02  0.17195278041E+03  0.43804771992E+03  0.48031909683E+03  0.79694393254E+02 0.  0.
       -6    2    1    2    0  504 -0.18694137633E+02 -0.18820002962E+03 -0.32467830711E+03  0.41381402099E+03  0.17337046730E+03 0.  0.
      -24    2    5    5    0    0 -0.17194465273E+01 -0.19903892536E+03 -0.22039627621E+03  0.30750102194E+03  0.79767848314E+02 0.  0.
        5    1    3    3  501    0 -0.35173058797E+02  0.16247249216E+02  0.18211169191E+02  0.43068014298E+02  0.47000000000E+01 0. -1.
      -11    1    4    4    0    0  0.54994235124E+02  0.11630717593E+03  0.21608260308E+03  0.25148243760E+03  0.00000000000E+00 0.  1.
       12    1    4    4    0    0 -0.11270386936E+01  0.55645604478E+02  0.22196511684E+03  0.22883665923E+03  0.00000000000E+00 0. -1.
       -5    1    5    5    0  504 -0.16974691106E+02  0.10838895735E+02 -0.10428203090E+03  0.10631299905E+03  0.47000000000E+01 0.  1.
        1    1    6    6  502    0 -0.37640807967E+02 -0.13178288144E+03 -0.12613701339E+03  0.18626353484E+03  0.00000000000E+00 0. -1.
       -2    1    6    6    0  502  0.35921361440E+02 -0.67256043922E+02 -0.94259262823E+02  0.12123748711E+03  0.00000000000E+00 0.  1.
</event>
<event>
12   0  0.1523332E-01  0.1856982E+03  0.7957747E-01  0.1168210E+00
       21   -1    0    0  501  503  0.00000000000E+00  0.00000000000E+00  0.18421721513E+03  0.18421721513E+03  0.00000000000E+00 0. -1.
       21   -1    0    0  503  504  0.00000000000E+00  0.00000000000E+00 -0.20017695319E+03  0.20017695319E+03  0.00000000000E+00 0. -1.
        6    2    1    2  501    0  0.43846903398E+02  0.30905163042E+02  0.52451334564E+02  0.19296365728E+03  0.17778118712E+03 0.  0.
       24    2    3    3    0    0  0.42028735143E+01 -0.19772429910E+02 -0.30200344193E+02  0.88114920836E+02  0.80271821671E+02 0.  0.
       -6    2    1    2    0  504 -0.43846903398E+02 -0.30905163042E+02 -0.68411072618E+02  0.19143051104E+03  0.17055170964E+03 0.  0.
      -24    2    5    5    0    0 -0.92934178656E+02 -0.39461397472E+02 -0.49340145840E+02  0.13787157166E+03  0.79875883885E+02 0.  0.
        5    1    3    3  501    0  0.39644029884E+02  0.50677592952E+02  0.82651678757E+02  0.10484873645E+03  0.47000000000E+01 0. -1.
      -13    1    4    4    0    0  0.29148248079E+02 -0.28785115766E+02  0.78710946797E+01  0.41715193721E+02  0.00000000000E+00 0.  1.
       14    1    4    4    0    0 -0.24945374565E+02  0.90126858560E+01 -0.38071438873E+02  0.46399727115E+02  0.00000000000E+00 0. -1.
       -5    1    5    5    0  504  0.49087275258E+02  0.85562344301E+01 -0.19070926778E+02  0.53558939385E+02  0.47000000000E+01 0.  1.
        1    1    6    6  502    0 -0.68521113473E+02 -0.43488632744E+02  0.16736497287E+01  0.81173919906E+02  0.00000000000E+00 0. -1.
       -2    1    6    6    0  502 -0.24413065183E+02  0.40272352723E+01 -0.51013795569E+02  0.56697651749E+02  0.00000000000E+00 0.  1.
</event>
<event>
12   0  0.1523332E-01  0.2118214E+03  0.7957747E-01  0.1146696E+00
       21   -1    0    0  504  503  0.00000000000E+00  0.00000000000E+00  0.86306605960E+02  0.86306605960E+02  0.00000000000E+00 0.  1.
       21   -1    0    0  501  504  0.00000000000E+00  0.00000000000E+00 -0.53884280685E+03  0.53884280685E+03  0.00000000000E+00 0.  1.
        6    2    1    2  501    0 -0.11876273657E+03 -0.24465408954E+02 -0.28578432549E+03  0.35572600183E+03  0.17368121329E+03 0.  0.
       24    2    3    3    0    0 -0.14571050805E+03 -0.32066364924E+02 -0.18572068499E+03  0.25171264178E+03  0.81285160285E+02 0.  0.
       -6    2    1    2    0  503  0.11876273657E+03  0.24465408954E+02 -0.16675187540E+03  0.26942341098E+03  0.17343483676E+03 0.  0.
      -24    2    5    5    0    0  0.14448080422E+03  0.33033485115E+02 -0.17365111127E+03  0.24105934237E+03  0.77388527402E+02 0.  0.
        5    1    3    3  501    0  0.26947771480E+02  0.76009559702E+01 -0.10006364050E+03  0.10401336005E+03  0.47000000000E+01 0. -1.
        4    1    4    4  502    0 -0.12556808756E+03  0.37243758958E+01 -0.15932108524E+03  0.20289017668E+03  0.00000000000E+00 0. -1.
       -3    1    4    4    0  502 -0.20142420483E+02 -0.35790740820E+02 -0.26399599747E+02  0.48822465097E+02  0.00000000000E+00 0.  1.
       -5    1    5    5    0  503 -0.25718067651E+02 -0.85680761606E+01  0.68992358616E+01  0.28364068613E+02  0.47000000000E+01 0.  1.
       13    1    6    6    0    0  0.24139900667E+02 -0.51741323405E+01 -0.80374570629E+02  0.84080782903E+02  0.00000000000E+00 0. -1.
      -14    1    6    6    0    0  0.12034090355E+03  0.38207617455E+02 -0.93276540636E+02  0.15697855947E+03  0.00000000000E+00 0.  1.
</event>
<event>
12   0  0.1523332E-01  0.1962192E+03  0.7957747E-01  0.1159105E+00
       21   -1    0    0  501  503  0.00000000000E+00  0.00000000000E+00  0.23686585669E+03  0.23686585669E+03  0.00000000000E+00 0. -1.
       21   -1    0    0  503  504  0.00000000000E+00  0.00000000000E+00 -0.64353615093E+03  0.64353615093E+03  0.00000000000E+00 0. -1.
        6    2    1    2  501    0  0.10420876617E+02  0.89807752631E+02  0.17785588094E+03  0.26382044217E+03  0.17261078824E+03 0.  0.
       24    2    3    3    0    0 -0.29727519555E+02 -0.10993246609E+02  0.71387603474E+02  0.11173389026E+03  0.79898031348E+02 0.  0.
       -6    2    1    2    0  504 -0.10420876617E+02 -0.89807752631E+02 -0.58452617519E+03  0.61658156546E+03  0.17414921843E+03 0.  0.
      -24    2    5    5    0    0  0.49694112735E+01 -0.46476879969E+02 -0.55257756630E+03  0.56039233965E+03  0.80701995895E+02 0.  0.
        5    1    3    3  501    0  0.40148396172E+02  0.10080099924E+03  0.10646827747E+03  0.15208655190E+03  0.47000000000E+01 0. -1.
      -13    1    4    4    0    0  0.19090689986E+02  0.12668848476E+00  0.56288726212E+02  0.59438129115E+02  0.00000000000E+00 0.  1.
       14    1    4    4    0    0 -0.48818209541E+02 -0.11119935093E+02  0.15098877262E+02  0.52295761146E+02  0.00000000000E+00 0. -1.
       -5    1    5    5    0  504 -0.15390287890E+02 -0.43330872662E+02 -0.31948608888E+02  0.56189225807E+02  0.47000000000E+01 0.  1.
        3    1    6    6  502    0  0.20893301708E+02  0.13861104174E+02 -0.83535186306E+02  0.87216899832E+02  0.00000000000E+00 0. -1.
       -4    1    6    6    0  502 -0.15923890435E+02 -0.60337984144E+02 -0.46904237999E+03  0.47317543982E+03  0.00000000000E+00 0.  1.
</event>
<event>
12   0  0.1523332E-01  0.2349381E+03  0.7957747E-01  0.1130315E+00
       21   -1    0    0  501  503  0.00000000000E+00  0.00000000000E+00  0.24610207572E+03  0.24610207572E+03  0.00000000000E+00 0. -1.
       21   -1    0    0  503  504  0.00000000000E+00  0.00000000000E+00 -0.33688360556E+03  0.33688360556E+03  0.00000000000E+00 0. -1.
        6    2    1    2  501    0  0.10680704036E+03  0.11711685659E+03  0.12336657139E+03  0.26535864507E+03  0.17341221874E+03 0.  0.
       24    2    3    3    0    0  0.23994943317E+02  0.95333321917E+02  0.15118778912E+02  0.12725708687E+03  0.79382549156E+02 0.  0.
       -6    2    1    2    0  504 -0.10680704036E+03 -0.11711685659E+03 -0.21414810124E+03  0.31762703622E+03  0.17292606196E+03 0.  0.
      -24    2    5    5    0    0 -0.13559402102E+03 -0.65477486158E+02 -0.18580454908E+03  0.25189453450E+03  0.79085310383E+02 0.  0.
        5    1    3    3  501    0  0.82812097046E+02  0.21783534668E+02  0.10824779248E+03  0.13810155820E+03  0.47000000000E+01 0. -1.
        2    1    4    4  502    0  0.52887644610E+02  0.56274313353E+02  0.15018467419E+02  0.78673093617E+02  0.00000000000E+00 0. -1.
       -1    1    4    4    0  502 -0.28892701293E+02  0.39059008565E+02  0.10031149357E+00  0.48583993254E+02  0.00000000000E+00 0.  1.
       -5    1    5    5    0  504  0.28786980661E+02 -0.51639370427E+02 -0.28343552153E+02  0.65732501720E+02  0.47000000000E+01 0.  1.
       13    1    6    6    0    0 -0.16471945581E+02 -0.37959910745E+02 -0.80601903552E+02  0.90603237642E+02  0.00000000000E+00 0. -1.
      -14    1    6    6    0    0 -0.11912207544E+03 -0.27517575413E+02 -0.10520264553E+03  0.16129129685E+03  0.00000000000E+00 0.  1.
</event>
<event>
12   0  0.1523332E-01  0.2289422E+03  0.7957747E-01  0.1134360E+00
       21   -1    0    0  504  503  0.00000000000E+00  0.00000000000E+00  0.19803050655E+03  0.19803050655E+03  0.00000000000E+00 0.  1.
       21   -1    0    0  501  504  0.00000000000E+00  0.00000000000E+00 -0.26060036533E+03  0.26060036533E+03  0.00000000000E+00 0.  1.
        6    2    1    2  501    0  0.71798351331E+00 -0.15015858470E+03 -0.13648249351E+02  0.22452009594E+03  0.16635769508E+03 0.  0.
       24    2    3    3    0    0 -0.60665075786E+02 -0.11484631973E+03 -0.11909414636E+02  0.15352749370E+03  0.80987212509E+02 0.  0.
       -6    2    1    2    0  503 -0.71798351331E+00  0.15015858470E+03 -0.48921609430E+02  0.23411077594E+03  0.17281902524E+03 0.  0.
      -24    2    5    5    0    0 -0.68151017822E+02  0.92202615908E+02 -0.36109099323E+02  0.14415323679E+03  0.79563842376E+02 0.  0.
        5    1    3    3  501    0  0.61383059299E+02 -0.35312264966E+02 -0.17388347153E+01  0.70992602236E+02  0.47000000000E+01 0. -1.
      -13    1    4    4    0    0 -0.40495664806E+02 -0.86946171880E+02  0.28864475142E+02  0.10016333460E+03  0.00000000000E+00 0.  1.
       14    1    4    4    0    0 -0.20169410980E+02 -0.27900147852E+02 -0.40773889778E+02  0.53364159106E+02  0.00000000000E+00 0. -1.
       -5    1    5    5    0  503  0.67433034308E+02  0.57955968790E+02 -0.12812510107E+02  0.89957539149E+02  0.47000000000E+01 0.  1.
        3    1    6    6  502    0 -0.47706757096E+02  0.30918243862E+01 -0.17092350191E+02  0.50770488334E+02  0.00000000000E+00 0. -1.
       -4    1    6    6    0  502 -0.20444260726E+02  0.89110791522E+02 -0.19016749132E+02  0.93382748460E+02  0.00000000000E+00 0.  1.
</event>
<event>
12   0  0.1523332E-01  0.1768565E+03  0.7957747E-01  0.1176390E+00
       21   -1    0    0  501  503  0.00000000000E+00  0.00000000000E+00  0.30741581170E+03  0.30741581170E+03  0.00000000000E+00 0. -1.
       21   -1    0    0  503  504  0.00000000000E+00  0.00000000000E+00 -0.14113443286E+03  0.14113443286E+03  0.00000000000E+00 0. -1.
        6    2    1    2  501    0  0.33925233426E+02 -0.28309339178E+01  0.20288263606E+03  0.26914604777E+03  0.17354911513E+03 0.  0.
       24    2    3    3    0    0 -0.23928235708E+02  0.40533798962E+02  0.48297182645E+02  0.98423242154E+02  0.71686591649E+02 0.  0.
       -6    2    1    2    0  504 -0.33925233426E+02  0.28309339178E+01 -0.36601257221E+02  0.17940419680E+03  0.17229996561E+03 0.  0.
      -24    2    5    5    0    0 -0.72812205498E+02  0.19442003261E+02  0.15008000634E+02  0.11251825120E+03  0.82191897476E+02 0.  0.
        5    1    3    3  501    0  0.57853469134E+02 -0.43364732880E+02  0.15458545342E+03  0.17072280561E+03  0.47000000000E+01 0. -1.
        4    1    4    4  502    0  0.21437807468E+02  0.13792001993E+02 -0.20415584048E+01  0.25572775930E+02  0.00000000000E+00 0. -1.
       -3    1    4    4    0  502 -0.45366043176E+02  0.26741796969E+02  0.50338741050E+02  0.72850466224E+02  0.00000000000E+00 0.  1.
       -5    1    5    5    0  504  0.38886972072E+02 -0.16611069343E+02 -0.51609257855E+02  0.66885945594E+02  0.47000000000E+01 0.  1.
       13    1    6    6    0    0 -0.76745515010E+02  0.31385717314E+02 -0.10988501394E+02  0.83640208562E+02  0.00000000000E+00 0. -1.
      -14    1    6    6    0    0  0.39333095122E+01 -0.11943714053E+02  0.25996502028E+02  0.28878042641E+02  0.00000000000E+00 0.  1.
</event>
<event>
12   0  0.1523332E-01  0.2722508E+03  0.7957747E-01  0.1107794E+00
       -1   -1    0    0    0  501  0.00000000000E+00  0.00000000000E+00  0.21164745995E+03  0.21164745995E+03  0.00000000000E+00 0. -1.
        1   -1    0    0  502    0  0.00000000000E+00  0.00000000000E+00 -0.43026498821E+03  0.43026498821E+03  0.00000000000E+00 0.  1.
        6    2    1    2  502    0  0.17175288581E+03  0.12217864802E+03 -0.24771141131E+03  0.36798086939E+03  0.17211130447E+03 0.  0.
       24    2    3    3    0    0  0.18705789580E+03  0.66225782994E+02 -0.18705593521E+03  0.28392051478E+03  0.79021674905E+02 0.  0.
       -6    2    1    2    0  501 -0.17175288581E+03 -0.12217864802E+03  0.29093883054E+02  0.27393157877E+03  0.17252646174E+03 0.  0.
      -24    2    5    5    0    0 -0.11788633761E+03 -0.15283371722E+03  0.89635213931E+01  0.20859659777E+03  0.78593016040E+02 0.  0.
        5    1    3    3  502    0 -0.15305009986E+02  0.55952865026E+02 -0.60655476107E+02  0.84060354610E+02  0.47000000000E+01 0. -1.
        2    1    4    4  503    0  0.83617303062E+02  0.63421983736E+02 -0.12518088035E+03  0.16335377008E+03  0.00000000000E+00 0. -1.
       -1    1    4    4    0  503  0.10344059274E+03  0.28037992578E+01 -0.61875054856E+02  0.12056674471E+03  0.00000000000E+00 0.  1.
       -5    1    5    5    0  501 -0.53866548198E+02  0.30655069195E+02  0.20130361661E+02  0.65334981004E+02  0.47000000000E+01 0.  1.
       11    1    6    6    0    0 -0.50565210579E+02 -0.73190604376E+02 -0.34771228673E+02  0.95513053732E+02  0.00000000000E+00 0. -1.
      -12    1    6    6    0    0 -0.67321127035E+02 -0.79643112839E+02  0.43734750066E+02  0.11308354403E+03  0.00000000000E+00 0.  1.
</event>
<event>
12   0  0.1523332E-01  0.1882267E+03  0.7957747E-01  0.1165962E+00
       -2   -1    0    0    0  501  0.00000000000E+00  0.00000000000E+00  0.64915814725E+02  0.64915814725E+02  0.00000000000E+00 0. -1.
        2   -1    0    0  502    0  0.00000000000E+00  0.00000000000E+00 -0.54644997339E+03  0.54644997339E+03  0.00000000000E+00 0.  1.
        6    2    1    2  502    0 -0.20824719737E+02  0.56437607527E+02 -0.25436392459E+03  0.31927797515E+03  0.18335361132E+03 0.  0.
       24    2    3    3    0    0  0.39100699228E+01  0.85643669205E+02 -0.25493140357E+03  0.28071353699E+03  0.80373768128E+02 0.  0.
       -6    2    1    2    0  501  0.20824719737E+02 -0.56437607527E+02 -0.22717023407E+03  0.29208781296E+03  0.17346498995E+03 0.  0.
      -24    2    5    5    0    0  0.72544530807E+02 -0.64896045871E+02 -0.19405924776E+03  0.22991940096E+03  0.75695003649E+02 0.  0.
        5    1    3    3  502    0 -0.24734789660E+02 -0.29206061678E+02  0.56747897258E+00  0.38564438161E+02  0.47000000000E+01 0. -1.
        2    1    4    4  503    0 -0.37247453509E+02  0.29875545113E+02 -0.92016798310E+02  0.10366779712E+03  0.00000000000E+00 0. -1.
       -1    1    4    4    0  503  0.41157523431E+02  0.55768124093E+02 -0.16291460526E+03  0.17704573987E+03  0.00000000000E+00 0.  1.
       -5    1    5    5    0  501 -0.51719811070E+02  0.84584383434E+01 -0.33110986307E+02  0.62168412000E+02  0.47000000000E+01 0.  1.
       11    1    6    6    0    0  0.13609640760E+02 -0.62795119054E+02 -0.97073780634E+02  0.11641206203E+03  0.00000000000E+00 0. -1.
      -12    1    6    6    0    0  0.58934890047E+02 -0.21009268164E+01 -0.96985467130E+02  0.11350733894E+03  0.00000000000E+00 0.  1.
</event>
<event>
12   0  0.1523332E-01  0.1921268E+03  0.7957747E-01  0.1162570E+00
       21   -1    0    0  501  503  0.00000000000E+00  0.00000000000E+00  0.34030388308E+03  0.34030388308E+03  0.00000000000E+00 0.  1.
       21   -1    0    0  503  504  0.00000000000E+00  0.00000000000E+00 -0.13905734829E+03  0.13905734829E+03  0.00000000000E+00 0. -1.
        6    2    1    2  501    0 -0.47787986986E+02  0.67944827732E+02  0.21398773065E+03  0.28758206862E+03  0.17324117873E+03 0.  0.
       24    2    3    3    0    0 -0.67148242688E+02 -0.12365214328E+02  0.10437761295E+03  0.15024674811E+03  0.83771201566E+02 0.  0.
       -6    2    1    2    0  504  0.47787986986E+02 -0.67944827732E+02 -0.12741195864E+02  0.19177916275E+03  0.17238537606E+03 0.  0.
      -24    2    5    5    0    0  0.94463267030E+02 -0.27557031101E+02 -0.24018194211E+02  0.12885844617E+03  0.79655048268E+02 0.  0.
        5    1    3    3  501    0  0.19360255702E+02  0.80310042060E+02  0.10961011769E+03  0.13733532050E+03  0.47000000000E+01 0. -1.
        2    1    4    4  502    0 -0.15264681010E+02 -0.27117968458E+02 -0.17813614693E+01  0.31169984734E+02  0.00000000000E+00 0. -1.
       -1    1    4    4    0  502 -0.51883561678E+02  0.14752754130E+02  0.10615897442E+03  0.11907676338E+03  0.00000000000E+00 0.  1.
       -5    1    5    5    0  504 -0.46675280044E+02 -0.40387796631E+02  0.11276998347E+02  0.62920716586E+02  0.47000000000E+01 0.  1.
       11    1    6    6    0    0 -0.12648427358E+02  0.21709360832E+01 -0.11066560830E+02  0.16945927142E+02  0.00000000000E+00 0. -1.
      -12    1    6    6    0    0  0.10711169439E+03 -0.29727967184E+02 -0.12951633381E+02  0.11191251903E+03  0.00000000000E+00 0.  1.
</event>
<event>
12   0  0.1523332E-01  0.2431537E+03  0.7957747E-01  0.1124982E+00
       21   -1    0    0  501  503  0.00000000000E+00  0.00000000000E+00  0.16047503839E+03  0.16047503839E+03  0.00000000000E+00 0.  1.
       21   -1    0    0  503  504  0.00000000000E+00  0.00000000000E+00 -0.37083171279E+03  0.37083171279E+03  0.00000000000E+00 0.  1.
        6    2    1    2  501    0  0.13318920815E+03 -0.10615542754E+03 -0.81089940826E+02  0.25631871417E+03  0.17353779060E+03 0.  0.
       24    2    3    3    0    0  0.13316376318E+03 -0.19423062356E+02 -0.49748798429E+02  0.16397771014E+03  0.79397124026E+02 0.  0.
       -6    2    1    2    0  504 -0.13318920815E+03  0.10615542754E+03 -0.12926673357E+03  0.27498803702E+03  0.17291672021E+03 0.  0.
      -24    2    5    5    0    0 -0.78322432464E+02  0.13429513253E+03 -0.12088980936E+03  0.21258235675E+03  0.80045776567E+02 0.  0.
        5    1    3    3  501    0  0.25444968903E-01 -0.86732365186E+02 -0.31341142397E+02  0.92341004028E+02  0.47000000000E+01 0. -1.
      -11    1    4    4    0    0  0.52367599373E+02 -0.38831157625E+02 -0.47836301061E+02  0.80861214224E+02  0.00000000000E+00 0.  1.
       12    1    4    4    0    0  0.80796163807E+02  0.19408095269E+02 -0.19124973681E+01  0.83116495920E+02  0.00000000000E+00 0. -1.
       -5    1    5    5    0  504 -0.54866775685E+02 -0.28139704984E+02 -0.83769242162E+01  0.62405680270E+02  0.47000000000E+01 0.  1.
        3    1    6    6  502    0  0.42720347267E-02  0.38083316048E+02 -0.67534186694E+02  0.77531963421E+02  0.00000000000E+00 0. -1.
       -4    1    6    6    0  502 -0.78326704498E+02  0.96211816478E+02 -0.53355622663E+02  0.13505039333E+03  0.00000000000E+00 0.  1.
</event>
<event>
12   0  0.1523332E-01  0.2621817E+03  0.7957747E-01  0.1113466E+00
       21   -1    0    0  504  503  0.00000000000E+00  0.00000000000E+00  0.40475771572E+03  0.40475771572E+03  0.00000000000E+00 0.  1.
       21   -1    0    0  501  504  0.00000000000E+00  0.00000000000E+00 -0.95089639018E+03  0.95089639018E+03  0.00000000000E+00 0. -1.
        6    2    1    2  501    0 -0.19361753057E+03 -0.31600712904E+02 -0.88744186381E+03  0.92527390462E+03  0.17347156462E+03 0.  0.
       24    2    3    3    0    0 -0.69837258771E+02 -0.45112504135E+02 -0.61600151589E+03  0.62660004124E+03  0.79103497777E+02 0.  0.
       -6    2    1    2    0  503  0.19361753057E+03  0.31600712904E+02  0.34130318934E+03  0.43038020128E+03  0.17393360056E+03 0.  0.
      -24    2    5    5    0    0  0.12276307503E+03 -0.23899531390E+02  0.29388642078E+03  0.32854174624E+03  0.76996691544E+02 0.  0.
        5    1    3    3  501    0 -0.12378027180E+03  0.13511791231E+02 -0.27144034792E+03  0.29867386338E+03  0.47000000000E+01 0. -1.
      -11    1    4    4    0    0 -0.29430289739E+02  0.14920230464E+02 -0.94355061289E+02  0.99958155355E+02  0.00000000000E+00 0.  1.
       12    1    4    4    0    0 -0.40406969032E+02 -0.60032734599E+02 -0.52164645460E+03  0.52664188589E+03  0.00000000000E+00 0. -1.
       -5    1    5    5    0  503  0.70854455534E+02  0.55500244294E+02  0.47416768561E+02  0.10183845505E+03  0.47000000000E+01 0.  1.
        1    1    6    6  502    0  0.30548619603E+02  0.49428674374E+01  0.16268711311E+03  0.16560418736E+03  0.00000000000E+00 0. -1.
       -2    1    6    6    0  502  0.92214455429E+02 -0.28842398828E+02  0.13119930767E+03  0.16293755888E+03  0.00000000000E+00 0.  1.
</event>
<event>
12   0  0.1523332E-01  0.5188279E+03  0.7957747E-01  0.1018975E+00
       21   -1    0    0  504  503  0.00000000000E+00  0.00000000000E+00  0.69585263523E+03  0.69585263523E+03  0.00000000000E+00 0. -1.
       21   -1    0    0  501  504  0.00000000000E+00  0.00000000000E+00 -0.41457658602E+03  0.41457658602E+03  0.00000000000E+00 0.  1.
        6    2    1    2  501    0 -0.21949584156E+03 -0.43663169098E+03 -0.39681599479E+01  0.51835938591E+03  0.17278613557E+03 0.  0.
       24    2    3    3    0    0 -0.18398990975E+03 -0.23194799327E+03  0.26544923453E+02  0.30833742144E+03  0.81946165442E+02 0.  0.
       -6    2    1    2    0  503  0.21949584156E+03  0.43663169098E+03  0.28524420916E+03  0.59206983534E+03  0.17423195183E+03 0.  0.
      -24    2    5    5    0    0  0.35673752208E+02  0.91103714131E+02  0.85507542001E+02  0.15264183268E+03  0.80096729147E+02 0.  0.
        5    1    3    3  501    0 -0.35505931808E+02 -0.20468369771E+03 -0.30513083400E+02  0.21002196447E+03  0.47000000000E+01 0. -1.
        2    1    4    4  502    0 -0.66833714180E+02 -0.12843516754E+03  0.43268704993E+02  0.15111094747E+03  0.00000000000E+00 0. -1.
       -1    1    4    4    0  502 -0.11715619557E+03 -0.10351282573E+03 -0.16723781540E+02  0.15722647398E+03  0.00000000000E+00 0.  1.
       -5    1    5    5    0  503  0.18382208935E+03  0.34552797684E+03  0.19973666716E+03  0.43942800266E+03  0.47000000000E+01 0.  1.
       13    1    6    6    0    0  0.69195484755E+01  0.79419436227E+02  0.91152208142E+02  0.12109521894E+03  0.00000000000E+00 0. -1.
      -14    1    6    6    0    0  0.28754203733E+02  0.11684277904E+02 -0.56446661416E+01  0.31546613737E+02  0.00000000000E+00 0.  1.
</event>
<event>
12   0  0.1523332E-01  0.1822981E+03  0.7957747E-01  0.1171295E+00
        1   -1    0    0  502    0  0.00000000000E+00  0.00000000000E+00  0.45122901991E+03  0.45122901991E+03  0.00000000000E+00 0. -1.
       -1   -1    0    0    0  501  0.00000000000E+00  0.00000000000E+00 -0.13855543052E+03  0.13855543052E+03  0.00000000000E+00 0.  1.
        6    2    1    2  502    0  0.19634466977E+02 -0.42443862539E+02 -0.45353640988E+02  0.18816080783E+03  0.17652349162E+03 0.  0.
       24    2    3    3    0    0  0.41194211002E+02 -0.24602554758E+02 -0.94016218147E+02  0.13182901182E+03  0.78978417072E+02 0.  0.
       -6    2    1    2    0  501 -0.19634466977E+02  0.42443862539E+02  0.35802723037E+03  0.40162364260E+03  0.17587227993E+03 0.  0.
      -24    2    5    5    0    0  0.54159780798E+02  0.38414312041E+02  0.21562977133E+03  0.24112144753E+03  0.85055352259E+02 0.  0.
        5    1    3    3  502    0 -0.21559744025E+02 -0.17841307781E+02  0.48662577159E+02  0.56331796008E+02  0.47000000000E+01 0. -1.
        4    1    4    4  503    0  0.46073451890E+02 -0.47880612712E+02 -0.55575142720E+02  0.86625126442E+02  0.00000000000E+00 0. -1.
       -3    1    4    4    0  503 -0.48792408882E+01  0.23278057953E+02 -0.38441075427E+02  0.45203885383E+02  0.00000000000E+00 0.  1.
       -5    1    5    5    0  501 -0.73794247775E+02  0.40295504983E+01  0.14239745905E+03  0.16050219508E+03  0.47000000000E+01 0.  1.
       11    1    6    6    0    0 -0.90975233897E+01  0.41338767099E+02  0.63241733039E+02  0.76099772633E+02  0.00000000000E+00 0. -1.
      -12    1    6    6    0    0  0.63257304188E+02 -0.29244550577E+01  0.15238803829E+03  0.16502167489E+03  0.00000000000E+00 0.  1.
</event>
<event>
12   0  0.1523332E-01  0.1883429E+03  0.7957747E-01  0.1165860E+00
       21   -1    0    0  501  503  0.00000000000E+00  0.00000000000E+00  0.11212905688E+03  0.11212905688E+03  0.00000000000E+00 0.  1.
       21   -1    0    0  503  504  0.00000000000E+00  0.00000000000E+00 -0.38306673956E+03  0.38306673956E+03  0.00000000000E+00 0. -1.
        6    2    1    2  501    0 -0.49001751641E+02 -0.52702799574E+02 -0.31062752553E+02  0.19088721605E+03  0.17405251480E+03 0.  0.
       24    2    3    3    0    0 -0.80002639635E+02 -0.67075536568E+02 -0.61025741150E+02  0.14519803450E+03  0.80366524039E+02 0.  0.
       -6    2    1    2    0  504  0.49001751641E+02  0.52702799574E+02 -0.23987493013E+03  0.30430858038E+03  0.17287270821E+03 0.  0.
      -24    2    5    5    0    0  0.15982845594E+02  0.63468201263E+02 -0.24775960335E+03  0.26838644094E+03  0.79767140491E+02 0.  0.
        5    1    3    3  501    0  0.31000887993E+02  0.14372736994E+02  0.29962988597E+02  0.45689181550E+02  0.47000000000E+01 0. -1.
      -11    1    4    4    0    0 -0.60124989859E+02 -0.11182271244E+01 -0.43192836647E+02  0.74039759421E+02  0.00000000000E+00 0.  1.
       12    1    4    4    0    0 -0.19877649775E+02 -0.65957309443E+02 -0.17832904503E+02  0.71158275082E+02  0.00000000000E+00 0. -1.
       -5    1    5    5    0  504  0.33018906047E+02 -0.10765401689E+02  0.78846732262E+01  0.35922139440E+02  0.47000000000E+01 0.  1.
        3    1    6    6  502    0  0.17286294335E+02 -0.14552463274E+02 -0.83997155295E+02  0.86983402192E+02  0.00000000000E+00 0. -1.
       -4    1    6    6    0  502 -0.13034487406E+01  0.78020664537E+02 -0.16376244806E+03  0.18140303875E+03  0.00000000000E+00 0.  1.
</event>
<event>
12   0  0.1523332E-01  0.1847491E+03  0.7957747E-01  0.1169064E+00
       21   -1    0    0  501  503  0.00000000000E+00  0.00000000000E+00  0.79756730329E+02  0.79756730329E+02  0.00000000000E+00 0. -1.
       21   -1    0    0  503  504  0.00000000000E+00  0.00000000000E+00 -0.43618640696E+03  0.43618640696E+03  0.00000000000E+00 0. -1.
        6    2    1    2  501    0  0.59291551695E+02 -0.21962283748E+02 -0.14246051702E+03  0.23325069608E+03  0.17353114504E+03 0.  0.
       24    2    3    3    0    0 -0.47108744321E+01  0.84503512028E+01 -0.14069111149E+03  0.16221225781E+03  0.80157513421E+02 0.  0.
       -6    2    1    2    0  504 -0.59291551695E+02  0.21962283748E+02 -0.21396915961E+03  0.28269244121E+03  0.17359258350E+03 0.  0.
      -24    2    5    5    0    0 -0.75220054597E+02 -0.78195551598E+01 -0.62120078339E+02  0.12706176102E+03  0.81034467513E+02 0.  0.
        5    1    3    3  501    0  0.64002426128E+02 -0.30412634951E+02 -0.17694055277E+01  0.71038438263E+02  0.47000000000E+01 0. -1.
        4    1    4    4  502    0 -0.36220823467E+02  0.10871778377E+02 -0.33709251879E+02  0.50660213975E+02  0.00000000000E+00 0. -1.
       -3    1    4    4    0  502  0.31509949035E+02 -0.24214271741E+01 -0.10698185961E+03  0.11155204384E+03  0.00000000000E+00 0.  1.
       -5    1    5    5    0  504  0.15928502902E+02  0.29781838908E+02 -0.15184908127E+03  0.15563068019E+03  0.47000000000E+01 0.  1.
       13    1    6    6    0    0 -0.37797540718E+02  0.22271681786E+02 -0.65597588098E+02  0.78915939190E+02  0.00000000000E+00 0. -1.
      -14    1    6    6    0    0 -0.37422513879E+02 -0.30091236945E+02  0.34775097595E+01  0.48145821834E+02  0.00000000000E+00 0.  1.
</event>
<event>
12   0  0.1523332E-01  0.1755225E+03  0.7957747E-01  0.1177670E+00
       21   -1    0    0  504  503  0.00000000000E+00  0.00000000000E+00  0.23756324721E+03  0.23756324721E+03  0.00000000000E+00 0. -1.
       21   -1    0    0  501  504  0.00000000000E+00  0.00000000000E+00 -0.41656573810E+03  0.41656573810E+03  0.00000000000E+00 0. -1.
        6    2    1    2  501    0 -0.14771109342E+02  0.28162542968E+02 -0.36124842810E+03  0.40163240208E+03  0.17261762685E+03 0.  0.
       24    2    3    3    0    0  0.14497763314E+02  0.78682787979E+02 -0.27433813216E+03  0.29682566755E+03  0.80267676533E+02 0.  0.
       -6    2    1    2    0  503  0.14771109342E+02 -0.28162542968E+02  0.18224593721E+03  0.25249658322E+03  0.17184187037E+03 0.  0.
      -24    2    5    5    0    0 -0.24575333133E+02  0.14583315199E+02  0.17382511534E+03  0.19360387428E+03  0.80316058988E+02 0.  0.
        5    1    3    3  501    0 -0.29268872656E+02 -0.50520245010E+02 -0.86910295939E+02  0.10480673453E+03  0.47000000000E+01 0. -1.
        2    1    4    4  502    0  0.45672540924E+02  0.37392536982E+02 -0.17713798335E+03  0.18671381299E+03  0.00000000000E+00 0. -1.
       -1    1    4    4    0  502 -0.31174777610E+02  0.41290250997E+02 -0.97200148814E+02  0.11011185457E+03  0.00000000000E+00 0.  1.
       -5    1    5    5    0  503  0.39346442475E+02 -0.42745858167E+02  0.84208218703E+01  0.58892708944E+02  0.47000000000E+01 0.  1.
       11    1    6    6    0    0  0.23063675606E+02  0.21002768065E+02  0.10584133285E+03  0.11034236330E+03  0.00000000000E+00 0. -1.
      -12    1    6    6    0    0 -0.47639008739E+02 -0.64194528665E+01  0.67983782487E+02  0.83261510976E+02  0.00000000000E+00 0.  1.
</event>
<event>
12   0  0.1523332E-01  0.1908077E+03  0.7957747E-01  0.1163708E+00
       21   -1    0    0  501  503  0.00000000000E+00  0.00000000000E+00  0.11853342192E+03  0.11853342192E+03  0.00000000000E+00 0. -1.
       21   -1    0    0  503  504  0.00000000000E+00  0.00000000000E+00 -0.48450665231E+03  0.48450665231E+03  0.00000000000E+00 0. -1.
        6    2    1    2  501    0 -0.35706985061E+02  0.72209344762E+02 -0.45728622737E+00  0.19071800015E+03  0.17286980134E+03 0.  0.
       24    2    3    3    0    0  0.22266857897E+02  0.90303066880E+02  0.20417394024E+02  0.12632707281E+03  0.83013267003E+02 0.  0.
       -6    2    1    2    0  504  0.35706985061E+02 -0.72209344762E+02 -0.36551594416E+03  0.41232207408E+03  0.17296938770E+03 0.  0.
      -24    2    5    5    0    0 -0.34900122130E+02 -0.16829097388E+02 -0.12007875997E+03  0.15095291604E+03  0.82865174973E+02 0.  0.
        5    1    3    3  501    0 -0.57973842958E+02 -0.18093722118E+02 -0.20874680252E+02  0.64390927335E+02  0.47000000000E+01 0. -1.
        2    1    4    4  502    0 -0.18482045779E+02  0.76208106771E+02  0.26518548513E+02  0.82779798073E+02  0.00000000000E+00 0. -1.
       -1    1    4    4    0  502  0.40748903676E+02  0.14094960109E+02 -0.61011544889E+01  0.43547274741E+02  0.00000000000E+00 0.  1.
       -5    1    5    5    0  504  0.70607107191E+02 -0.55380247374E+02 -0.24543718420E+03  0.26136915803E+03  0.47000000000E+01 0.  1.
       13    1    6    6    0    0  0.14259937618E+02  0.23199952640E+02 -0.45942702164E+02  0.53407073553E+02  0.00000000000E+00 0. -1.
      -14    1    6    6    0    0 -0.49160059748E+02 -0.40029050029E+02 -0.74136057802E+02  0.97545842490E+02  0.00000000000E+00 0.  1.
</event>
<event>
12   0  0.1523332E-01  0.2002874E+03  0.7957747E-01  0.1155750E+00
       21   -1    0    0  501  503  0.00000000000E+00  0.00000000000E+00  0.35513943589E+03  0.35513943589E+03  0.00000000000E+00 0.  1.
       21   -1    0    0  503  504  0.00000000000E+00  0.00000000000E+00 -0.12371013179E+03  0.12371013179E+03  0.00000000000E+00 0. -1.
        6    2    1    2  501    0 -0.59662403873E+02  0.77169768498E+02  0.18875012419E+03  0.27406540053E+03  0.17311978159E+03 0.  0.
       24    2    3    3    0    0 -0.24474015689E+02  0.44292977053E+02  0.17933963293E+02  0.96528483512E+02  0.80220170964E+02 0.  0.
       -6    2    1    2    0  504  0.59662403873E+02 -0.77169768498E+02  0.42679179909E+02  0.20478416716E+03  0.17492932034E+03 0.  0.
      -24    2    5    5    0    0  0.54907239759E+02  0.95567754946E+01 -0.16351008229E+02  0.99661580951E+02  0.80987272530E+02 0.  0.
        5    1    3    3  501    0 -0.35188388183E+02  0.32876791444E+02  0.17081616090E+03  0.17753691701E+03  0.47000000000E+01 0. -1.
      -13    1    4    4    0    0 -0.47087292170E+02  0.34902865511E+02  0.33503421060E+02  0.67512238353E+02  0.00000000000E+00 0.  1.
       14    1    4    4    0    0  0.22613276481E+02  0.93901115425E+01 -0.15569457766E+02  0.29016245159E+02  0.00000000000E+00 0. -1.
       -5    1    5    5    0  504  0.47551641136E+01 -0.86726543992E+02  0.59030188138E+02  0.10512258620E+03  0.47000000000E+01 0.  1.
        3    1    6    6  502    0  0.21695326495E+02  0.16496988511E+02 -0.46744424691E+02  0.54109879517E+02  0.00000000000E+00 0. -1.
       -4    1    6    6    0  502  0.33211913264E+02 -0.69402130163E+01  0.30393416462E+02  0.45551701435E+02  0.00000000000E+00 0.  1.
</event>
<event>
12   0  0.1523332E-01  0.2156630E+03  0.7957747E-01  0.1143820E+00
       21   -1    0    0  504  503  0.00000000000E+00  0.00000000000E+00  0.86114862034E+03  0.86114862034E+03  0.00000000000E+00 0.  1.
       21   -1    0    0  501  504  0.00000000000E+00  0.00000000000E+00 -0.60455895841E+02  0.60455895841E+02  0.00000000000E+00 0.  1.
        6    2    1    2  501    0 -0.81016334787E+02  0.99777488797E+02  0.24750940133E+03  0.32786860896E+03  0.17238830360E+03 0.  0.
       24    2    3    3    0    0 -0.22832254691E+02  0.30337978426E+02  0.31883211036E+02  0.93937044778E+02  0.79786743551E+02 0.  0.
       -6    2    1    2    0  503  0.81016334787E+02 -0.99777488797E+02  0.55318332317E+03  0.59373590723E+03  0.17318009333E+03 0.  0.
      -24    2    5    5    0    0  0.89198979822E+02 -0.56792135386E+02  0.23522286541E+03  0.27274425782E+03  0.88757135606E+02 0.  0.
        5    1    3    3  501    0 -0.58184080096E+02  0.69439510371E+02  0.21562619030E+03  0.23393156418E+03  0.47000000000E+01 0. -1.
      -11    1    4    4    0    0 -0.93005530805E+01  0.37196380469E+02  0.54541127454E+02  0.66669375214E+02  0.00000000000E+00 0.  1.
       12    1    4    4    0    0 -0.13531701611E+02 -0.68584020427E+01 -0.22657916418E+02  0.27267669564E+02  0.00000000000E+00 0. -1.
       -5    1    5    5    0  503 -0.81826450347E+01 -0.42985353410E+02  0.31796045776E+03  0.32099164941E+03  0.47000000000E+01 0.  1.
        1    1    6    6  502    0 -0.12054329309E+02 -0.30568036842E+02  0.67649787541E+02  0.75207748842E+02  0.00000000000E+00 0. -1.
       -2    1    6    6    0  502  0.10125330913E+03 -0.26224098545E+02  0.16757307787E+03  0.19753650898E+03  0.00000000000E+00 0.  1.
</event>
<event>
12   0  0.1523332E-01  0.1890645E+03  0.7957747E-01  0.1165226E+00
       21   -1    0    0  501  503  0.00000000000E+00  0.00000000000E+00  0.11814986663E+03  0.11814986663E+03  0.00000000000E+00 0.  1.
       21   -1    0    0  503  504  0.00000000000E+00  0.00000000000E+00 -0.32376870878E+03  0.32376870878E+03  0.00000000000E+00 0. -1.
        6    2    1    2  501    0 -0.67397586821E+02  0.30649166792E+02 -0.16121699858E+03  0.24771018895E+03  0.17288033706E+03 0.  0.
       24    2    3    3    0    0 -0.38106139777E+01  0.66203588982E+02 -0.13506545504E+03  0.17016398799E+03  0.79471187811E+02 0.  0.
       -6    2    1    2    0  504  0.67397586821E+02 -0.30649166792E+02 -0.44401843574E+02  0.19420838646E+03  0.17396427083E+03 0.  0.
      -24    2    5    5    0    0 -0.15456208023E+02 -0.52585355968E+02 -0.27814311374E+00  0.97694456596E+02  0.80870362046E+02 0.  0.
        5    1    3    3  501    0 -0.63586972843E+02 -0.35554422190E+02 -0.26151543545E+02  0.77546200954E+02  0.47000000000E+01 0. -1.
      -11    1    4    4    0    0 -0.25082120672E+02  0.75617041704E+02 -0.96626831659E+02  0.12523495666E+03  0.00000000000E+00 0.  1.
       12    1    4    4    0    0  0.21271506694E+02 -0.94134527217E+01 -0.38438623376E+02  0.44929031330E+02  0.00000000000E+00 0. -1.
       -5    1    5    5    0  504  0.82853794844E+02  0.21936189175E+02 -0.44123700460E+02  0.96513929865E+02  0.47000000000E+01 0.  1.
        1    1    6    6  502    0  0.16721223044E+02 -0.61932934280E+02 -0.14395882681E+01  0.64166658499E+02  0.00000000000E+00 0. -1.
       -2    1    6    6    0  502 -0.32177431067E+02  0.93475783123E+01  0.11614451544E+01  0.33527798097E+02  0.00000000000E+00 0.  1.
</event>
<event>
12   0  0.1523332E-01  0.2237524E+03  0.7957747E-01  0.1137971E+00
       21   -1    0    0  504  503  0.00000000000E+00  0.00000000000E+00  0.77256094208E+02  0.77256094208E+02  0.00000000000E+00 0.  1.
       21   -1    0    0  501  504  0.00000000000E+00  0.00000000000E+00 -0.64166337486E+03  0.64166337486E+03  0.00000000000E+00 0. -1.
        6    2    1    2  501    0  0.13225888554E+03 -0.46930335396E+02 -0.28196025982E+03  0.35995375728E+03  0.17427062311E+03 0.  0.
       24    2    3    3    0    0  0.12572754706E+03 -0.71867011907E+02 -0.28880334119E+03  0.33287214026E+03  0.80151159618E+02 0.  0.
       -6    2    1    2    0  503 -0.13225888554E+03  0.46930335396E+02 -0.28244702083E+03  0.35896571178E+03  0.17142109986E+03 0.  0.
      -24    2    5    5    0    0 -0.32350275510E+02  0.73313753576E+02 -0.11166410514E+03  0.15929921634E+03  0.80535216893E+02 0.  0.
        5    1    3    3  501    0  0.65313384788E+01  0.24936676511E+02  0.68430813720E+01  0.27081617020E+02  0.47000000000E+01 0. -1.
      -13    1    4    4    0    0  0.26355986026E+02 -0.73196768919E+01 -0.86483004620E+01  0.28688129428E+02  0.00000000000E+00 0.  1.
       14    1    4    4    0    0  0.99371561034E+02 -0.64547335015E+02 -0.28015504073E+03  0.30418401083E+03  0.00000000000E+00 0. -1.
       -5    1    5    5    0  503 -0.99908610028E+02 -0.26383418180E+02 -0.17078291569E+03  0.19966649545E+03  0.47000000000E+01 0.  1.
        1    1    6    6  502    0 -0.10303261524E+02  0.80451553199E+02 -0.10915439340E+03  0.13599004084E+03  0.00000000000E+00 0. -1.
       -2    1    6    6    0  502 -0.22047013985E+02 -0.71377996228E+01 -0.25097117383E+01  0.23309175492E+02  0.00000000000E+00 0.  1.
</event>
<event>
12   0  0.1523332E-01  0.1753527E+03  0.7957747E-01  0.1177834E+00
        2   -1    0    0  502    0  0.00000000000E+00  0.00000000000E+00  0.32511690876E+03  0.32511690876E+03  0.00000000000E+00 0.  1.
       -2   -1    0    0    0  501  0.00000000000E+00  0.00000000000E+00 -0.94719074234E+02  0.94719074234E+02  0.00000000000E+00 0. -1.
        6    2    1    2  502    0 -0.31952009804E+02  0.34059312426E+01  0.12359671696E+03  0.21488783481E+03  0.17282390405E+03 0.  0.
       24    2    3    3    0    0  0.58624524970E-01 -0.37830250971E+02  0.13338026473E+03  0.16156887720E+03  0.82964303977E+02 0.  0.
       -6    2    1    2    0  501  0.31952009804E+02 -0.34059312426E+01  0.10680111757E+03  0.20494814818E+03  0.17194398341E+03 0.  0.
      -24    2    5    5    0    0  0.47557996557E+02  0.36261389792E+02  0.14209632445E+02  0.10290739016E+03  0.82530999438E+02 0.  0.
        5    1    3    3  502    0 -0.32010634329E+02  0.41236182214E+02 -0.97835477771E+01  0.53318957612E+02  0.47000000000E+01 0. -1.
        4    1    4    4  503    0  0.59100277627E+01 -0.60988886053E+02  0.65898722271E+02  0.89984522264E+02  0.00000000000E+00 0. -1.
       -3    1    4    4    0  503 -0.58514032377E+01  0.23158635082E+02  0.67481542463E+02  0.71584354938E+02  0.00000000000E+00 0.  1.
       -5    1    5    5    0  501 -0.15605986754E+02 -0.39667321035E+02  0.92591485125E+02  0.10204075803E+03  0.47000000000E+01 0.  1.
       11    1    6    6    0    0  0.46796688709E+02 -0.62817500849E+01  0.31734308110E+02  0.56889865261E+02  0.00000000000E+00 0. -1.
      -12    1    6    6    0    0  0.76130784881E+00  0.42543139877E+02 -0.17524675666E+02  0.46017524894E+02  0.00000000000E+00 0.  1.
</event>
<event>
12   0  0.1523332E-01  0.2243204E+03  0.7957747E-01  0.1137571E+00
        2   -1    0    0  502    0  0.00000000000E+00  0.00000000000E+00  0.34541270987E+03  0.34541270987E+03  0.00000000000E+00 0.  1.
       -2   -1    0    0    0  501  0.00000000000E+00  0.00000000000E+00 -0.14692017394E+03  0.14692017394E+03  0.00000000000E+00 0. -1.
        6    2    1    2  502    0  0.13475902692E+03 -0.35977883615E+02  0.75714376142E+02  0.23445047836E+03  0.17256870111E+03 0.  0.
       24    2    3    3    0    0  0.14639378762E+03  0.40798294788E+01  0.25659925437E+02  0.16912417378E+03  0.80602532971E+02 0.  0.
       -6    2    1    2    0  501 -0.13475902692E+03  0.35977883615E+02  0.12277815979E+03  0.25788240544E+03  0.17881402369E+03 0.  0.
      -24    2    5    5    0    0 -0.13075385689E+03 -0.17101100771E+02  0.34435348680E+02  0.15463531229E+03  0.73056607011E+02 0.  0.
        5    1    3    3  502    0 -0.11634760700E+02 -0.40057713094E+02  0.50054450705E+02  0.65326304581E+02  0.47000000000E+01 0. -1.
        2    1    4    4  503    0  0.17285748306E+02  0.18232149839E+02 -0.19300009252E+02  0.31681204829E+02  0.00000000000E+00 0. -1.
       -1    1    4    4    0  503  0.12910803932E+03 -0.14152320360E+02  0.44959934689E+02  0.13744296895E+03  0.00000000000E+00 0.  1.
       -5    1    5    5    0  501 -0.40051700310E+01  0.53078984386E+02  0.88342811110E+02  0.10324709316E+03  0.47000000000E+01 0.  1.
       13    1    6    6    0    0 -0.63118288706E+02  0.70971197358E+01  0.50359077861E+02  0.81057536359E+02  0.00000000000E+00 0. -1.
      -14    1    6    6    0    0 -0.67635568186E+02 -0.24198220506E+02 -0.15923729181E+02  0.73577775928E+02  0.00000000000E+00 0.  1.
</event>
<event>
12   0  0.1523332E-01  0.2439950E+03  0.7957747E-01  0.1124449E+00
       21   -1    0    0  504  503  0.00000000000E+00  0.00000000000E+00  0.37192957847E+03  0.37192957847E+03  0.00000000000E+00 0. -1.
       21   -1    0    0  501  504  0.00000000000E+00  0.00000000000E+00 -0.53071831954E+03  0.53071831954E+03  0.00000000000E+00 0. -1.
        6    2    1    2  501    0  0.75049899768E+02 -0.15377500223E+03 -0.45696543930E+03  0.51802604069E+03  0.17393771112E+03 0.  0.
       24    2    3    3    0    0 -0.27340702037E+02 -0.32358448263E+02 -0.15035616848E+03  0.17268975550E+03  0.73621947084E+02 0.  0.
       -6    2    1    2    0  503 -0.75049899768E+02  0.15377500223E+03  0.29817669824E+03  0.38462185732E+03  0.17246852175E+03 0.  0.
      -24    2    5    5    0    0 -0.92508067852E+02  0.55951706236E+02  0.11840595734E+03  0.17916189978E+03  0.79941725963E+02 0.  0.
        5    1    3    3  501    0  0.10239060181E+03 -0.12141655397E+03 -0.30660927082E+03  0.34533628519E+03  0.47000000000E+01 0. -1.
        2    1    4    4  502    0 -0.31265375277E+02 -0.53807557741E+02 -0.12162145569E+03  0.13661828372E+03  0.00000000000E+00 0. -1.
       -1    1    4    4    0  502  0.39246732402E+01  0.21449109478E+02 -0.28734712783E+02  0.36071471777E+02  0.00000000000E+00 0.  1.
       -5    1    5    5    0  503  0.17458168084E+02  0.97823295994E+02  0.17977074089E+03  0.20545995754E+03  0.47000000000E+01 0.  1.
       13    1    6    6    0    0 -0.19086576722E+02  0.29985469606E+02  0.89142021258E+02  0.95967316064E+02  0.00000000000E+00 0. -1.
      -14    1    6    6    0    0 -0.73421491130E+02  0.25966236630E+02  0.29263936083E+02  0.83194583715E+02  0.00000000000E+00 0.  1.
</event>
<event>
12   0  0.1523332E-01  0.1866051E+03  0.7957747E-01  0.1167399E+00
       21   -1    0    0  501  503  0.00000000000E+00  0.00000000000E+00  0.24575414285E+03  0.24575414285E+03  0.00000000000E+00 0.  1.
       21   -1    0    0  503  504  0.00000000000E+00  0.00000000000E+00 -0.15177190385E+03  0.15177190385E+03  0.00000000000E+00 0.  1.
        6    2    1    2  501    0 -0.17214336957E+02  0.67335624484E+02  0.98265497431E+02  0.21087178509E+03  0.17314843933E+03 0.  0.
       24    2    3    3    0    0 -0.11201250164E+02  0.25095027817E+02 -0.10307195744E+02  0.94121860370E+02  0.89428507139E+02 0.  0.
       -6    2    1    2    0  504  0.17214336957E+02 -0.67335624484E+02 -0.42832584309E+01  0.18665426160E+03  0.17317923475E+03 0.  0.
      -24    2    5    5    0    0  0.74748140858E+02 -0.32697914366E+02  0.20661270580E+02  0.11486130177E+03  0.78165160887E+02 0.  0.
        5    1    3    3  501    0 -0.60130867928E+01  0.42240596667E+02  0.10857269317E+03  0.11674992472E+03  0.47000000000E+01 0. -1.
      -11    1    4    4    0    0 -0.29501099070E+02  0.52547345595E+02 -0.30432658069E+01  0.60339040780E+02  0.00000000000E+00 0.  1.
       12    1    4    4    0    0  0.18299848905E+02 -0.27452317778E+02 -0.72639299370E+01  0.33782819591E+02  0.00000000000E+00 0. -1.
       -5    1    5    5    0  504 -0.57533803901E+02 -0.34637710118E+02 -0.24944529011E+02  0.71792959830E+02  0.47000000000E+01 0.  1.
        1    1    6    6  502    0  0.23797971463E+02 -0.30024752259E+02  0.44352660811E+02  0.58608768243E+02  0.00000000000E+00 0. -1.
       -2    1    6    6    0  502  0.50950169395E+02 -0.26731621067E+01 -0.23691390230E+02  0.56252533525E+02  0.00000000000E+00 0.  1.
</event>
<event>
12   0  0.1523332E-01  0.2269978E+03  0.7957747E-01  0.1135700E+00
       -3   -1    0    0    0  501  0.00000000000E+00  0.00000000000E+00  0.11490980590E+03  0.11490980590E+03  0.00000000000E+00 0.  1.
        3   -1    0    0  502    0  0.00000000000E+00  0.00000000000E+00 -0.46346327543E+03  0.46346327543E+03  0.00000000000E+00 0. -1.
        6    2    1    2  502    0 -0.14514923018E+03  0.19307725449E+02 -0.22632435005E+03  0.32049917644E+03  0.17336644252E+03 0.  0.
       24    2    3    3    0    0 -0.80612277186E+02 -0.50793717144E+02 -0.10083416586E+03  0.16286318155E+03  0.85314394844E+02 0.  0.
       -6    2    1    2    0  501  0.14514923018E+03 -0.19307725449E+02 -0.12222911948E+03  0.25787390489E+03  0.17354511198E+03 0.  0.
      -24    2    5    5    0    0  0.10965130105E+03 -0.68935367782E+02 -0.44377767434E+02  0.15884901473E+03  0.80548932245E+02 0.  0.
        5    1    3    3  502    0 -0.64536952994E+02  0.70101442593E+02 -0.12549018419E+03  0.15763599489E+03  0.47000000000E+01 0. -1.
      -13    1    4    4    0    0 -0.40520142416E+02 -0.70817829402E+02 -0.76611373611E+02  0.11192117525E+03  0.00000000000E+00 0.  1.
       14    1    4    4    0    0 -0.40092134770E+02  0.20024112259E+02 -0.24222792246E+02  0.50942006305E+02  0.00000000000E+00 0. -1.
       -5    1    5    5    0  501  0.35497929131E+02  0.49627642333E+02 -0.77851352043E+02  0.99024890159E+02  0.47000000000E+01 0.  1.
        1    1    6    6  503    0  0.71700221720E+02 -0.83169798390E+02 -0.44048681595E+02  0.11831493358E+03  0.00000000000E+00 0. -1.
       -2    1    6    6    0  503  0.37951079328E+02  0.14234430607E+02 -0.32908583897E+00  0.40534081146E+02  0.00000000000E+00 0.  1.
</event>
<event>
12   0  0.1523332E-01  0.2184686E+03  0.7957747E-01  0.1141760E+00
       21   -1    0    0  501  503  0.00000000000E+00  0.00000000000E+00  0.27794736050E+03  0.27794736050E+03  0.00000000000E+00 0.  1.
       21   -1    0    0  503  504  0.00000000000E+00  0.00000000000E+00 -0.18641926015E+03  0.18641926015E+03  0.00000000000E+00 0. -1.
        6    2    1    2  501    0 -0.88470756097E+02 -0.98878828651E+02 -0.19484250801E+02  0.21933569587E+03  0.17356386148E+03 0.  0.
       24    2    3    3    0    0 -0.64193408483E+02 -0.31402666827E+02 -0.72388714292E+02  0.13009784359E+03  0.81107347226E+02 0.  0.
       -6    2    1    2    0  504  0.88470756097E+02  0.98878828651E+02  0.11101235115E+03  0.24503092478E+03  0.17352900205E+03 0.  0.
      -24    2    5    5    0    0 -0.15278982345E+02  0.21659327741E+02  0.68439870188E+02  0.10879082172E+03  0.80304752531E+02 0.  0.
        5    1    3    3  501    0 -0.24277347614E+02 -0.67476161824E+02  0.52904463491E+02  0.89237852277E+02  0.47000000000E+01 0. -1.
        2    1    4    4  502    0 -0.54277942944E+01 -0.26513472263E+02 -0.65323136520E+02  0.70707406452E+02  0.00000000000E+00 0. -1.
       -1    1    4    4    0  502 -0.58765614189E+02 -0.48891945634E+01 -0.70655777718E+01  0.59390437140E+02  0.00000000000E+00 0.  1.
       -5    1    5    5    0  504  0.10374973844E+03  0.77219500909E+02  0.42572480961E+02  0.13624010306E+03  0.47000000000E+01 0.  1.
       11    1    6    6    0    0  0.19193060623E+02  0.32108456849E+01 -0.94542688544E+01  0.21634840089E+02  0.00000000000E+00 0. -1.
      -12    1    6    6    0    0 -0.34472042968E+02  0.18448482057E+02  0.77894139042E+02  0.87155981629E+02  0.00000000000E+00 0.  1.
</event>
<event>
12   0  0.1523332E-01  0.1799405E+03  0.7957747E-01  0.1173478E+00
        2   -1    0    0  502    0  0.00000000000E+00  0.00000000000E+00  0.12948323384E+04  0.12948323384E+04  0.00000000000E+00 0.  1.
       -2   -1    0    0    0  501  0.00000000000E+00  0.00000000000E+00 -0.31295653870E+02  0.31295653870E+02  0.00000000000E+00 0. -1.
        6    2    1    2  502    0 -0.49276871680E+02  0.46998026485E+00  0.33452608127E+03  0.37985218130E+03  0.17306516005E+03 0.  0.
       24    2    3    3    0    0  0.14316829076E+02  0.45705146594E+02  0.23938313657E+03  0.25670735203E+03  0.79375351924E+02 0.  0.
       -6    2    1    2    0  501  0.49276871680E+02 -0.46998026485E+00  0.92901060326E+03  0.94627581098E+03  0.17305715385E+03 0.  0.
      -24    2    5    5    0    0  0.27515085459E+02 -0.47388070640E+01  0.20226267115E+03  0.21917441155E+03  0.79672443892E+02 0.  0.
        5    1    3    3  502    0 -0.63593700756E+02 -0.45235166329E+02  0.95142944701E+02  0.12314482927E+03  0.47000000000E+01 0. -1.
        2    1    4    4  503    0  0.34153089379E+02 -0.17085629917E+01  0.14764288227E+03  0.15155122364E+03  0.00000000000E+00 0. -1.
       -1    1    4    4    0  503 -0.19836260303E+02  0.47413709585E+02  0.91740254301E+02  0.10515612839E+03  0.00000000000E+00 0.  1.
       -5    1    5    5    0  501  0.21761786221E+02  0.42688267991E+01  0.72674793211E+03  0.72710139943E+03  0.47000000000E+01 0.  1.
       13    1    6    6    0    0 -0.27849420289E+02  0.47463241727E+01  0.68146619638E+02  0.73770451888E+02  0.00000000000E+00 0. -1.
      -14    1    6    6    0    0  0.55364505748E+02 -0.94851312366E+01  0.13411605151E+03  0.14540395966E+03  0.00000000000E+00 0.  1.
</event>
<event>
12   0  0.1523332E-01  0.1869215E+03  0.7957747E-01  0.1167118E+00
       21   -1    0    0  501  503  0.00000000000E+00  0.00000000000E+00  0.10515511309E+03  0.10515511309E+03  0.00000000000E+00 0.  1.
       21   -1    0    0  503  504  0.00000000000E+00  0.00000000000E+00 -0.49826703765E+03  0.49826703765E+03  0.00000000000E+00 0.  1.
        6    2    1    2  501    0 -0.10061313416E+02 -0.69906039810E+02 -0.20669687058E+02  0.18670537332E+03  0.17159130524E+03 0.  0.
       24    2    3    3    0    0 -0.63579245143E+02 -0.20956493995E+02  0.18173633982E+02  0.10429711742E+03  0.77885253267E+02 0.  0.
       -6    2    1    2    0  504  0.10061313416E+02  0.69906039810E+02 -0.37244223750E+03  0.41671677742E+03  0.17306521280E+03 0.  0.
      -24    2    5    5    0    0 -0.10703508056E+02  0.47656083626E+02 -0.78145633479E+02  0.12081338187E+03  0.78124681222E+02 0.  0.
        5    1    3    3  501    0  0.53517931727E+02 -0.48949545816E+02 -0.38843321040E+02  0.82408255905E+02  0.47000000000E+01 0. -1.
        4    1    4    4  502    0 -0.34732093393E+02  0.13804070503E+02 -0.22404942750E+02  0.43575820515E+02  0.00000000000E+00 0. -1.
       -3    1    4    4    0  502 -0.28847151750E+02 -0.34760564498E+02  0.40578576731E+02  0.60721296905E+02  0.00000000000E+00 0.  1.
       -5    1    5    5    0  504  0.20764821472E+02  0.22249956184E+02 -0.29429660402E+03  0.29590339555E+03  0.47000000000E+01 0.  1.
       11    1    6    6    0    0  0.22745973656E+02  0.49184820833E+02 -0.29331810242E+02  0.61618836487E+02  0.00000000000E+00 0. -1.
      -12    1    6    6    0    0 -0.33449481712E+02 -0.15287372072E+01 -0.48813823238E+02  0.59194545385E+02  0.00000000000E+00 0.  1.
</event>
<event>
12   0  0.1523332E-01  0.2142945E+03  0.7957747E-01  0.1144837E+00
       21   -1    0    0  504  503  0.00000000000E+00  0.00000000000E+00  0.35763601900E+03  0.35763601900E+03  0.00000000000E+00 0.  1.
       21   -1    0    0  501  504  0.00000000000E+00  0.00000000000E+00 -0.16009863075E+03  0.16009863075E+03  0.00000000000E+00 0.  1.
        6    2    1    2  501    0 -0.11397789092E+03 -0.55347779704E+02  0.21433513756E+03  0.30278279807E+03  0.17228910377E+03 0.  0.
       24    2    3    3    0    0 -0.12309822587E+03 -0.82873339110E+02  0.21477591950E+03  0.27340387332E+03  0.81239268847E+02 0.  0.
       -6    2    1    2    0  503  0.11397789092E+03  0.55347779704E+02 -0.16797749303E+02  0.21495185169E+03  0.17282302458E+03 0.  0.
      -24    2    5    5    0    0  0.13847746790E+03  0.75539509162E+02 -0.32857229476E+02  0.17906408059E+03  0.78116073050E+02 0.  0.
        5    1    3    3  501    0  0.91203349543E+01  0.27525559406E+02 -0.44078194348E+00  0.29378924743E+02  0.47000000000E+01 0. -1.
        2    1    4    4  502    0 -0.44433770634E+02 -0.71114711016E+02  0.14546213660E+03  0.16790144514E+03  0.00000000000E+00 0. -1.
       -1    1    4    4    0  502 -0.78664455239E+02 -0.11758628094E+02  0.69313782898E+02  0.10550242818E+03  0.00000000000E+00 0.  1.
       -5    1    5    5    0  503 -0.24499576981E+02 -0.20191729458E+02  0.16059480173E+02  0.35887771095E+02  0.47000000000E+01 0.  1.
       11    1    6    6    0    0  0.68297975979E+02  0.93454401317E+01  0.16233891849E+02  0.70820124390E+02  0.00000000000E+00 0. -1.
      -12    1    6    6    0    0  0.70179491921E+02  0.66194069030E+02 -0.49091121326E+02  0.10824395620E+03  0.00000000000E+00 0.  1.
</event>
<event>
12   0  0.1523332E-01  0.1896808E+03  0.7957747E-01  0.1164687E+00
       21   -1    0    0  501  503  0.00000000000E+00  0.00000000000E+00  0.15901999984E+04  0.15901999984E+04  0.00000000000E+00 0. -1.
       21   -1    0    0  503  504  0.00000000000E+00  0.00000000000E+00 -0.22728936335E+02  0.22728936335E+02  0.00000000000E+00 0. -1.
        6    2    1    2  501    0 -0.36254102046E+02 -0.54525148945E+02  0.90533400914E+03  0.92499107429E+03  0.17802097525E+03 0.  0.
       24    2    3    3    0    0  0.88101598003E-01  0.34913519260E+02  0.32281275098E+03  0.33450556444E+03  0.80417279587E+02 0.  0.
       -6    2    1    2    0  504  0.36254102046E+02  0.54525148945E+02  0.66213705292E+03  0.68793786044E+03  0.17477319931E+03 0.  0.
      -24    2    5    5    0    0  0.49979539848E+02  0.96879570558E+02  0.54342198535E+03  0.56106137743E+03  0.87171150545E+02 0.  0.
        5    1    3    3  501    0 -0.36342203644E+02 -0.89438668204E+02  0.58252125816E+03  0.59048550985E+03  0.47000000000E+01 0. -1.
        4    1    4    4  502    0  0.19599279104E+02 -0.20021884595E+02  0.79042025378E+02  0.83860893031E+02  0.00000000000E+00 0. -1.
       -3    1    4    4    0  502 -0.19511177506E+02  0.54935403855E+02  0.24377072560E+03  0.25064467141E+03  0.00000000000E+00 0.  1.
       -5    1    5    5    0  504 -0.13725437801E+02 -0.42354421613E+02  0.11871506757E+03  0.12687648301E+03  0.47000000000E+01 0.  1.
       13    1    6    6    0    0 -0.24965118777E+01  0.85850786448E+02  0.34312174154E+03  0.35370767538E+03  0.00000000000E+00 0. -1.
      -14    1    6    6    0    0  0.52476051725E+02  0.11028784110E+02  0.20030024381E+03  0.20735370205E+03  0.00000000000E+00 0.  1.
</event>
<event>
12   0  0.1523332E-01  0.2089860E+03  0.7957747E-01  0.1148862E+00
       21   -1    0    0  501  503  0.00000000000E+00  0.00000000000E+00  0.29348444348E+03  0.29348444348E+03  0.00000000000E+00 0. -1.
       21   -1    0    0  503  504  0.00000000000E+00  0.00000000000E+00 -0.19209148431E+03  0.19209148431E+03  0.00000000000E+00 0. -1.
        6    2    1    2  501    0 -0.10104686890E+03 -0.48694102522E+02 -0.67248858243E+02  0.21703317361E+03  0.17320336075E+03 0.  0.
       24    2    3    3    0    0 -0.20484053218E+00 -0.11031524427E+02  0.14963676802E+02  0.81502456078E+02  0.79353652925E+02 0.  0.
       -6    2    1    2    0  504  0.10104686890E+03  0.48694102522E+02  0.16864181741E+03  0.26854275419E+03  0.17633366925E+03 0.  0.
      -24    2    5    5    0    0  0.40514770166E+02  0.26461982043E+02  0.69254689334E+01  0.94379986859E+02  0.80733739566E+02 0.  0.
        5    1    3    3  501    0 -0.10084202837E+03 -0.37662578095E+02 -0.82212535045E+02  0.13553071753E+03  0.47000000000E+01 0. -1.
        2    1    4    4  502    0 -0.50068244777E+01  0.32884926455E+02 -0.38482787732E+01  0.33485757103E+02  0.00000000000E+00 0. -1.
       -1    1    4    4    0  502  0.48019839455E+01 -0.43916450882E+02  0.18811955575E+02  0.48016698975E+02  0.00000000000E+00 0.  1.
       -5    1    5    5    0  504  0.60532098738E+02  0.22232120479E+02  0.16171634848E+03  0.17416276733E+03  0.47000000000E+01 0.  1.
       11    1    6    6    0    0 -0.18819046717E+02  0.39848845600E+01  0.21940339382E+02  0.29179004721E+02  0.00000000000E+00 0. -1.
      -12    1    6    6    0    0  0.59333816883E+02  0.22477097483E+02 -0.15014870449E+02  0.65200982138E+02  0.00000000000E+00 0.  1.
</event>
<event>
12   0  0.1523332E-01  0.1873812E+03  0.7957747E-01  0.1166710E+00
       -1   -1    0    0    0  501  0.00000000000E+00  0.00000000000E+00  0.24977895913E+03  0.24977895913E+03  0.00000000000E+00 0.  1.
        1   -1    0    0  502    0  0.00000000000E+00  0.00000000000E+00 -0.18484255438E+03  0.18484255438E+03  0.00000000000E+00 0. -1.
        6    2    1    2  502    0  0.52669990055E+02  0.45820026519E+02  0.13904917400E+03  0.23488201617E+03  0.17595819403E+03 0.  0.
       24    2    3    3    0    0  0.64642694944E+02  0.92327741623E+02  0.12023821091E+03  0.18309151936E+03  0.79763320007E+02 0.  0.
       -6    2    1    2    0  501 -0.52669990055E+02 -0.45820026519E+02 -0.74112769250E+02  0.19973949734E+03  0.17184167582E+03 0.  0.
      -24    2    5    5    0    0 -0.88537467765E+02 -0.35981281542E+02 -0.10348159598E+02  0.12577131294E+03  0.81103655471E+02 0.  0.
        5    1    3    3  502    0 -0.11972704890E+02 -0.46507715104E+02  0.18810963089E+02  0.51790496801E+02  0.47000000000E+01 0. -1.
      -13    1    4    4    0    0  0.77846475199E+02  0.70078733634E+02  0.11697153397E+03  0.15701414703E+03  0.00000000000E+00 0.  1.
       14    1    4    4    0    0 -0.13203780255E+02  0.22249007988E+02  0.32666769329E+01  0.26077372331E+02  0.00000000000E+00 0. -1.
       -5    1    5    5    0  501  0.35867477711E+02 -0.98387449768E+01 -0.63764609652E+02  0.73968184405E+02  0.47000000000E+01 0.  1.
        1    1    6    6  503    0 -0.57526691065E+02  0.20222768263E+02 -0.17155447432E+01  0.61001833045E+02  0.00000000000E+00 0. -1.
       -2    1    6    6    0  503 -0.31010776700E+02 -0.56204049805E+02 -0.86326148546E+01  0.64769479890E+02  0.00000000000E+00 0.  1.
</event>
<event>
12   0  0.1523332E-01  0.2395843E+03  0.7957747E-01  0.1127270E+00
       -1   -1    0    0    0  501  0.00000000000E+00  0.00000000000E+00  0.62046826485E+03  0.62046826485E+03  0.00000000000E+00 0.  1.
        1   -1    0    0  502    0  0.00000000000E+00  0.00000000000E+00 -0.10707034469E+03  0.10707034469E+03  0.00000000000E+00 0. -1.
        6    2    1    2  502    0  0.15178078150E+03 -0.63149458563E+02  0.39154851306E+03  0.45943781270E+03  0.17534995271E+03 0.  0.
       24    2    3    3    0    0  0.21338593652E+01 -0.15552600419E+02  0.15219729772E+03  0.17313245737E+03  0.81020945602E+02 0.  0.
       -6    2    1    2    0  501 -0.15178078150E+03  0.63149458563E+02  0.12184940709E+03  0.26810079684E+03  0.17322095574E+03 0.  0.
      -24    2    5    5    0    0 -0.43930753702E+02 -0.14781499559E+02  0.90378430255E+02  0.13128933857E+03  0.83187895255E+02 0.  0.
        5    1    3    3  502    0  0.14964692213E+03 -0.47596858143E+02  0.23935121534E+03  0.28630535533E+03  0.47000000000E+01 0. -1.
        2    1    4    4  503    0 -0.34707817229E+02  0.30396527375E+01  0.37260987513E+02  0.51012285344E+02  0.00000000000E+00 0. -1.
       -1    1    4    4    0  503  0.36841676595E+02 -0.18592253157E+02  0.11493631021E+03  0.12212017203E+03  0.00000000000E+00 0.  1.
       -5    1    5    5    0  501 -0.10785002780E+03  0.77930958122E+02  0.31470976839E+02  0.13681145827E+03  0.47000000000E+01 0.  1.
       13    1    6    6    0    0 -0.55382746267E+02  0.18572561475E+02  0.44552932175E+02  0.73465314191E+02  0.00000000000E+00 0. -1.
      -14    1    6    6    0    0  0.11451992564E+02 -0.33354061035E+02  0.45825498079E+02  0.57824024379E+02  0.00000000000E+00 0.  1.
</event>
<event>
12   0  0.1523332E-01  0.2301219E+03  0.7957747E-01  0.1133553E+00
       21   -1    0    0  504  503  0.00000000000E+00  0.00000000000E+00  0.91036381142E+02  0.91036381142E+02  0.00000000000E+00 0.  1.
       21   -1    0    0  501  504  0.00000000000E+00  0.00000000000E+00 -0.57972839297E+03  0.57972839297E+03  0.00000000000E+00 0.  1.
        6    2    1    2  501    0 -0.43973673896E+02  0.13966848844E+03 -0.28250552112E+03  0.36178429505E+03  0.17215555764E+03 0.  0.
       24    2    3    3    0    0 -0.66629447957E+02  0.11204212677E+03 -0.11954682485E+03  0.19488873894E+03  0.81836762714E+02 0.  0.
       -6    2    1    2    0  503  0.43973673896E+02 -0.13966848844E+03 -0.20618649071E+03  0.30898047906E+03  0.17752491890E+03 0.  0.
      -24    2    5    5    0    0  0.27544078872E+02 -0.11013712840E+03 -0.22893105029E+03  0.26797514027E+03  0.80699359870E+02 0.  0.
        5    1    3    3  501    0  0.22655774062E+02  0.27626361670E+02 -0.16295869627E+03  0.16689555611E+03  0.47000000000E+01 0. -1.
        2    1    4    4  502    0 -0.11147054792E+02  0.36332636240E+02  0.56412759465E+01  0.38420584079E+02  0.00000000000E+00 0. -1.
       -1    1    4    4    0  502 -0.55482393166E+02  0.75709490525E+02 -0.12518810079E+03  0.15646815487E+03  0.00000000000E+00 0.  1.
       -5    1    5    5    0  503  0.16429595023E+02 -0.29531360036E+02  0.22744559584E+02  0.41005338785E+02  0.47000000000E+01 0.  1.
       13    1    6    6    0    0  0.29819915451E+01 -0.30203690703E+02 -0.14981299235E+03  0.15285642898E+03  0.00000000000E+00 0. -1.
      -14    1    6    6    0    0  0.24562087327E+02 -0.79933437696E+02 -0.79118057943E+02  0.11511871129E+03  0.00000000000E+00 0.  1.
</event>
<event>
12   0  0.1523332E-01  0.2187570E+03  0.7957747E-01  0.1141550E+00
       21   -1    0    0  504  503  0.00000000000E+00  0.00000000000E+00  0.72855903592E+03  0.72855903592E+03  0.00000000000E+00 0.  1.
       21   -1    0    0  501  504  0.00000000000E+00  0.00000000000E+00 -0.82676652614E+02  0.82676652614E+02  0.00000000000E+00 0.  1.
        6    2    1    2  501    0  0.68718979085E+01  0.12982371281E+03  0.13386717223E+03  0.25444648683E+03  0.17297738428E+03 0.  0.
       24    2    3    3    0    0 -0.42221939218E+02  0.13941815993E+03  0.10969191134E+03  0.19868994912E+03  0.78900348521E+02 0.  0.
       -6    2    1    2    0  503 -0.68718979085E+01 -0.12982371281E+03  0.51201521108E+03  0.55678920170E+03  0.17593527039E+03 0.  0.
      -24    2    5    5    0    0  0.25801144363E+02 -0.20622726948E+02  0.33530084698E+03  0.34645033348E+03  0.80685684393E+02 0.  0.
        5    1    3    3  501    0  0.49093837126E+02 -0.95944471162E+01  0.24175260888E+02  0.55756537717E+02  0.47000000000E+01 0. -1.
      -13    1    4    4    0    0  0.15744040595E+02  0.75655098177E+02  0.68116842761E+02  0.10301200397E+03  0.00000000000E+00 0.  1.
       14    1    4    4    0    0 -0.57965979813E+02  0.63763061754E+02  0.41575068579E+02  0.95677945146E+02  0.00000000000E+00 0. -1.
       -5    1    5    5    0  503 -0.32673042271E+02 -0.10920098587E+03  0.17671436409E+03  0.21033886822E+03  0.47000000000E+01 0.  1.
        3    1    6    6  502    0 -0.23535758290E+02  0.13497161087E+02  0.98202326156E+02  0.10188131398E+03  0.00000000000E+00 0. -1.
       -4    1    6    6    0  502  0.49336902652E+02 -0.34119888036E+02  0.23709852083E+03  0.24456901950E+03  0.00000000000E+00 0.  1.
</event>
<event>
12   0  0.1523332E-01  0.1778803E+03  0.7957747E-01  0.1175417E+00
       -1   -1    0    0    0  501  0.00000000000E+00  0.00000000000E+00  0.36567859623E+02  0.36567859623E+02  0.00000000000E+00 0. -1.
        1   -1    0    0  502    0  0.00000000000E+00  0.00000000000E+00 -0.87615892479E+03  0.87615892479E+03  0.00000000000E+00 0.  1.
        6    2    1    2  502    0 -0.29080431869E+02  0.28608605849E+02 -0.36964478430E+03  0.41034784815E+03  0.17344730056E+03 0.  0.
       24    2    3    3    0    0 -0.23556145747E+02  0.78456819806E+02 -0.17341375105E+03  0.20775448552E+03  0.79870098420E+02 0.  0.
       -6    2    1    2    0  501  0.29080431869E+02 -0.28608605849E+02 -0.46994628086E+03  0.50237893626E+03  0.17283218699E+03 0.  0.
      -24    2    5    5    0    0  0.64347974174E+02 -0.31084087225E+02 -0.18005173065E+03  0.21029869422E+03  0.81853728212E+02 0.  0.
        5    1    3    3  502    0 -0.55242861223E+01 -0.49848213958E+02 -0.19623103325E+03  0.20259336263E+03  0.47000000000E+01 0. -1.
        4    1    4    4  503    0 -0.96409488846E+01  0.50763060996E+02 -0.27396523946E+02  0.58484235323E+02  0.00000000000E+00 0. -1.
       -3    1    4    4    0  503 -0.13915196862E+02  0.27693758811E+02 -0.14601722711E+03  0.14927025019E+03  0.00000000000E+00 0.  1.
       -5    1    5    5    0  501 -0.35267542305E+02  0.24754813759E+01 -0.28989455021E+03  0.29208024204E+03  0.47000000000E+01 0.  1.
       13    1    6    6    0    0  0.29130932075E+02  0.24801496560E+02 -0.39459522226E+02  0.54961616875E+02  0.00000000000E+00 0. -1.
      -14    1    6    6    0    0  0.35217042099E+02 -0.55885583784E+02 -0.14059220842E+03  0.15533707734E+03  0.00000000000E+00 0.  1.
</event>
<event>
12   0  0.1523332E-01  0.1935032E+03  0.7957747E-01  0.1161394E+00
       21   -1    0    0  501  503  0.00000000000E+00  0.00000000000E+00  0.64241098080E+02  0.64241098080E+02  0.00000000000E+00 0.  1.
       21   -1    0    0  503  504  0.00000000000E+00  0.00000000000E+00 -0.56049966797E+03  0.56049966797E+03  0.00000000000E+00 0.  1.
        6    2    1    2  501    0 -0.49740421881E+02  0.26893369962E+02 -0.20083496966E+03  0.27158554981E+03  0.17385816896E+03 0.  0.
       24    2    3    3    0    0 -0.10182373269E+02 -0.15946940069E+02 -0.48517167171E+02  0.10842019097E+03  0.95094882492E+02 0.  0.
       -6    2    1    2    0  504  0.49740421881E+02 -0.26893369962E+02 -0.29542360023E+03  0.35315521623E+03  0.18505712702E+03 0.  0.
      -24    2    5    5    0    0  0.63689186544E+02 -0.62422085885E+02 -0.10252113869E+03  0.15645669728E+03  0.77558268137E+02 0.  0.
        5    1    3    3  501    0 -0.39558048612E+02  0.42840310031E+02 -0.15231780249E+03  0.16316535885E+03  0.47000000000E+01 0. -1.
      -11    1    4    4    0    0 -0.34532168142E+02 -0.35510915514E+02 -0.57524765463E+02  0.75911754023E+02  0.00000000000E+00 0.  1.
       12    1    4    4    0    0  0.24349794873E+02  0.19563975445E+02  0.90075982922E+01  0.32508436944E+02  0.00000000000E+00 0. -1.
       -5    1    5    5    0  504 -0.13948764663E+02  0.35528715923E+02 -0.19290246154E+03  0.19669851895E+03  0.47000000000E+01 0.  1.
        1    1    6    6  502    0  0.78782148182E+02 -0.34215544253E+02 -0.69582743110E+02  0.11053998589E+03  0.00000000000E+00 0. -1.
       -2    1    6    6    0  502 -0.15092961638E+02 -0.28206541632E+02 -0.32938395584E+02  0.45916711397E+02  0.00000000000E+00 0.  1.
</event>
<event>
12   0  0.1523332E-01  0.1917859E+03  0.7957747E-01  0.1162863E+00
       21   -1    0    0  501  503  0.00000000000E+00  0.00000000000E+00  0.57967236312E+03  0.57967236312E+03  0.00000000000E+00 0.  1.
       21   -1    0    0  503  504  0.00000000000E+00  0.00000000000E+00 -0.64001214428E+02  0.64001214428E+02  0.00000000000E+00 0.  1.
        6    2    1    2  501    0 -0.20804258484E+02  0.78345663821E+02  0.22283266586E+03  0.29362182883E+03  0.17317194109E+03 0.  0.
       24    2    3    3    0    0 -0.20744634495E+02  0.10432432659E+03  0.98032656559E+02  0.16605997405E+03  0.81557392369E+02 0.  0.
       -6    2    1    2    0  504  0.20804258484E+02 -0.78345663821E+02  0.29283848283E+03  0.35005174871E+03  0.17381308795E+03 0.  0.
      -24    2    5    5    0    0 -0.29626844743E+02  0.95595300893E+01  0.16799189741E+03  0.18918105784E+03  0.81234601666E+02 0.  0.
        5    1    3    3  501    0 -0.59623989381E-01 -0.25978662769E+02  0.12480000930E+03  0.12756185478E+03  0.47000000000E+01 0. -1.
        2    1    4    4  502    0 -0.40960580607E+01  0.38033199078E+02 -0.87825650661E+01  0.39248380513E+02  0.00000000000E+00 0. -1.
       -1    1    4    4    0  502 -0.16648576434E+02  0.66291127512E+02  0.10681522163E+03  0.12681159354E+03  0.00000000000E+00 0.  1.
       -5    1    5    5    0  504  0.50431103227E+02 -0.87905193910E+02  0.12484658542E+03  0.16087069087E+03  0.47000000000E+01 0.  1.
       11    1    6    6    0    0  0.22875853665E+02  0.21748110197E+02  0.45727254279E+02  0.55563178112E+02  0.00000000000E+00 0. -1.
      -12    1    6    6    0    0 -0.52502698407E+02 -0.12188580107E+02  0.12226464313E+03  0.13361787973E+03  0.00000000000E+00 0.  1.
</event>
<event>
12   0  0.1523332E-01  0.1804314E+03  0.7957747E-01  0.1173021E+00
        2   -1    0    0  502    0  0.00000000000E+00  0.00000000000E+00  0.96985944170E+02  0.96985944170E+02  0.00000000000E+00 0. -1.
       -2   -1    0    0    0  501  0.00000000000E+00  0.00000000000E+00 -0.34979837823E+03  0.34979837823E+03  0.00000000000E+00 0.  1.
        6    2    1    2  502    0  0.49245139886E+02  0.12173805420E+02 -0.82094588878E+02  0.19900119742E+03  0.17403640341E+03 0.  0.
       24    2    3    3    0    0 -0.14578355280E+02 -0.33122689180E+01  0.13015189407E+02  0.83323987224E+02  0.80932021620E+02 0.  0.
       -6    2    1    2    0  501 -0.49245139886E+02 -0.12173805420E+02 -0.17071784519E+03  0.24778312498E+03  0.17227480669E+03 0.  0.
      -24    2    5    5    0    0 -0.74234559653E+02  0.42609044491E+02 -0.99354397412E+02  0.15429267936E+03  0.81293505889E+02 0.  0.
        5    1    3    3  502    0  0.63823495166E+02  0.15486074338E+02 -0.95109778285E+02  0.11567721020E+03  0.47000000000E+01 0. -1.
        2    1    4    4  503    0  0.39672251273E+01 -0.22155641069E+02  0.39777724071E+02  0.45704251867E+02  0.00000000000E+00 0. -1.
       -1    1    4    4    0  503 -0.18545580408E+02  0.18843372151E+02 -0.26762534664E+02  0.37619735357E+02  0.00000000000E+00 0.  1.
       -5    1    5    5    0  501  0.24989419767E+02 -0.54782849911E+02 -0.71363447773E+02  0.93490445623E+02  0.47000000000E+01 0.  1.
       13    1    6    6    0    0 -0.79021982360E+02  0.57329245194E+02 -0.98659814852E+02  0.13879796510E+03  0.00000000000E+00 0. -1.
      -14    1    6    6    0    0  0.47874227066E+01 -0.14720200703E+02 -0.69458255993E+00  0.15494714255E+02  0.00000000000E+00 0.  1.
</event>
<event>
12   0  0.1523332E-01  0.2904580E+03  0.7957747E-01  0.1098184E+00
       21   -1    0    0  504  503  0.00000000000E+00  0.00000000000E+00  0.73934944480E+03  0.73934944480E+03  0.00000000000E+00 0. -1.
       21   -1    0    0  501  504  0.00000000000E+00  0.00000000000E+00 -0.37958562492E+03  0.37958562492E+03  0.00000000000E+00 0. -1.
        6    2    1    2  501    0  0.20940023868E+03  0.66259808790E+02 -0.29295436176E+03  0.40450741701E+03  0.17194525327E+03 0.  0.
       24    2    3    3    0    0  0.50338589957E+02  0.13912185906E+02 -0.17348636673E+03  0.19875131491E+03  0.81713176291E+02 0.  0.
       -6    2    1    2    0  503 -0.20940023868E+03 -0.66259808790E+02  0.65271818163E+03  0.71442765271E+03  0.19007110274E+03 0.  0.
      -24    2    5    5    0    0 -0.17763420223E+03  0.18437264434E+02  0.39117010352E+03  0.43763863116E+03  0.81361410225E+02 0.  0.
        5    1    3    3  501    0  0.15906164873E+03  0.52347622884E+02 -0.11946799503E+03  0.20575610210E+03  0.47000000000E+01 0. -1.
        2    1    4    4  502    0  0.19766617179E+02 -0.25932630415E+02 -0.12411054913E+03  0.12832244106E+03  0.00000000000E+00 0. -1.
       -1    1    4    4    0  502  0.30571972778E+02  0.39844816320E+02 -0.49375817606E+02  0.70428873847E+02  0.00000000000E+00 0.  1.
       -5    1    5    5    0  503 -0.31766036456E+02 -0.84697073224E+02  0.26154807812E+03  0.27678902155E+03  0.47000000000E+01 0.  1.
       13    1    6    6    0    0 -0.13757020947E+03 -0.40301709350E+01  0.34949152112E+03  0.37561433432E+03  0.00000000000E+00 0. -1.
      -14    1    6    6    0    0 -0.40063992753E+02  0.22467435369E+02  0.41678582402E+02  0.62024296839E+02  0.00000000000E+00 0.  1.
</event>
<event>
12   0  0.1523332E-01  0.1880825E+03  0.7957747E-01  0.1166089E+00
       21   -1    0    0  504  503  0.00000000000E+00  0.00000000000E+00  0.39226994343E+03  0.39226994343E+03  0.00000000000E+00 0.  1.
       21   -1    0    0  501  504  0.00000000000E+00  0.00000000000E+00 -0.10140054412E+03  0.10140054412E+03  0.00000000000E+00 0. -1.
        6    2    1    2  501    0  0.65896846063E+02 -0.26380306412E+02  0.62524845307E+02  0.19820292315E+03  0.17417441712E+03 0.  0.
       24    2    3    3    0    0  0.92203329211E+02  0.53289366363E+01  0.86997729514E+02  0.15005191889E+03  0.80106940637E+02 0.  0.
       -6    2    1    2    0  503 -0.65896846063E+02  0.26380306412E+02  0.22834455400E+03  0.29546756440E+03  0.17355555704E+03 0.  0.
      -24    2    5    5    0    0 -0.29824533151E+02 -0.29481236583E+02  0.43260233376E+02  0.98744359141E+02  0.78232695098E+02 0.  0.
        5    1    3    3  501    0 -0.26306483148E+02 -0.31709243048E+02 -0.24472884207E+02  0.48151004265E+02  0.47000000000E+01 0. -1.
      -13    1    4    4    0    0  0.56071580030E+02  0.75735819130E+01  0.82821827490E+00  0.56586810968E+02  0.00000000000E+00 0.  1.
       14    1    4    4    0    0  0.36131749181E+02 -0.22446452767E+01  0.86169511239E+02  0.93465107920E+02  0.00000000000E+00 0. -1.
       -5    1    5    5    0  503 -0.36072312912E+02  0.55861542995E+02  0.18508432062E+03  0.19672320525E+03  0.47000000000E+01 0.  1.
        1    1    6    6  502    0 -0.42064822937E+02 -0.49702596985E+02  0.31000902775E+02  0.72116942868E+02  0.00000000000E+00 0. -1.
       -2    1    6    6    0  502  0.12240289786E+02  0.20221360402E+02  0.12259330601E+02  0.26627416273E+02  0.00000000000E+00 0.  1.
</event>
<event>
12   0  0.1523332E-01  0.3591914E+03  0.7957747E-01  0.1067794E+00
        2   -1    0    0  502    0  0.00000000000E+00  0.00000000000E+00  0.25953834455E+03  0.25953834455E+03  0.00000000000E+00 0.  1.
       -2   -1    0    0    0  501  0.00000000000E+00  0.00000000000E+00 -0.59232083671E+03  0.59232083671E+03  0.00000000000E+00 0. -1.
        6    2    1    2  502    0  0.22058012117E+02 -0.31308001263E+03 -0.33764811314E+03  0.49390471945E+03  0.17728500609E+03 0.  0.
       24    2    3    3    0    0 -0.17743981934E+02 -0.98282797300E+02 -0.19159507951E+03  0.23108230588E+03  0.81951207788E+02 0.  0.
       -6    2    1    2    0  501 -0.22058012117E+02  0.31308001263E+03  0.48656209790E+01  0.35795446180E+03  0.17205252760E+03 0.  0.
      -24    2    5    5    0    0 -0.55014085819E+02  0.91991173249E+02  0.27424385131E+02  0.13323827295E+03  0.74238904123E+02 0.  0.
        5    1    3    3  502    0  0.39801994051E+02 -0.21479721533E+03 -0.14605303363E+03  0.26282241357E+03  0.47000000000E+01 0. -1.
        2    1    4    4  503    0 -0.33897794912E+02 -0.71863893292E+02 -0.70941916711E+02  0.10651870824E+03  0.00000000000E+00 0. -1.
       -1    1    4    4    0  503  0.16153812978E+02 -0.26418904008E+02 -0.12065316280E+03  0.12456359764E+03  0.00000000000E+00 0.  1.
       -5    1    5    5    0  501  0.32956073702E+02  0.22108883938E+03 -0.22558764152E+02  0.22471618885E+03  0.47000000000E+01 0.  1.
       13    1    6    6    0    0 -0.73229159942E+02  0.80151075024E+02  0.20954544616E+02  0.11057032890E+03  0.00000000000E+00 0. -1.
      -14    1    6    6    0    0  0.18215074122E+02  0.11840098225E+02  0.64698405145E+01  0.22667944052E+02  0.00000000000E+00 0.  1.
</event>
<event>
12   0  0.1523332E-01  0.2678883E+03  0.7957747E-01  0.1110218E+00
        2   -1    0    0  502    0  0.00000000000E+00  0.00000000000E+00  0.11533334529E+04  0.11533334529E+04  0.00000000000E+00 0. -1.
       -2   -1    0    0    0  501  0.00000000000E+00  0.00000000000E+00 -0.62964513994E+02  0.62964513994E+02  0.00000000000E+00 0.  1.
        6    2    1    2  502    0 -0.17896977220E+03 -0.10512385436E+03  0.47602787911E+03  0.54543551968E+03  0.16678177456E+03 0.  0.
       24    2    3    3    0    0 -0.11325907356E+03  0.19934478788E+01  0.27567768459E+03  0.30888890102E+03  0.81133074739E+02 0.  0.
       -6    2    1    2    0  501  0.17896977220E+03  0.10512385436E+03  0.61434105984E+03  0.67086244725E+03  0.17193103621E+03 0.  0.
      -24    2    5    5    0    0  0.19876422802E+03  0.99786885927E+02  0.59968719206E+03  0.64522790895E+03  0.85027555633E+02 0.  0.
        5    1    3    3  502    0 -0.65710698638E+02 -0.10711730224E+03  0.20035019452E+03  0.23654661866E+03  0.47000000000E+01 0. -1.
      -11    1    4    4    0    0 -0.28760772651E+02  0.17008631444E+02  0.19431973712E+02  0.38653294677E+02  0.00000000000E+00 0.  1.
       12    1    4    4    0    0 -0.84498300913E+02 -0.15015183565E+02  0.25624571088E+03  0.27023560635E+03  0.00000000000E+00 0. -1.
       -5    1    5    5    0  501 -0.19794455821E+02  0.53369684354E+01  0.14653867780E+02  0.25634538308E+02  0.47000000000E+01 0.  1.
        1    1    6    6  503    0  0.77403793755E+02  0.64428381024E+02  0.36529305326E+03  0.37892133528E+03  0.00000000000E+00 0. -1.
       -2    1    6    6    0  503  0.12136043427E+03  0.35358504902E+02  0.23439413880E+03  0.26630657367E+03  0.00000000000E+00 0.  1.
</event>
<event>
12   0  0.1523332E-01  0.2236560E+03  0.7957747E-01  0.1138039E+00
       21   -1    0    0  504  503  0.00000000000E+00  0.00000000000E+00  0.67059556839E+03  0.67059556839E+03  0.00000000000E+00 0. -1.
       21   -1    0    0  501  504  0.00000000000E+00  0.00000000000E+00 -0.76131557868E+02  0.76131557868E+02  0.00000000000E+00 0. -1.
        6    2    1    2  501    0 -0.20069829438E+02  0.13785315636E+03  0.23908103215E+03  0.32682347114E+03  0.17391822957E+03 0.  0.
       24    2    3    3    0    0 -0.29865158700E+02  0.18548435566E+02  0.16191260191E+03  0.18432216761E+03  0.80765083118E+02 0.  0.
       -6    2    1    2    0  503  0.20069829438E+02 -0.13785315636E+03  0.35538297837E+03  0.41990365512E+03  0.17497350513E+03 0.  0.
      -24    2    5    5    0    0  0.60670170019E+02 -0.14132579190E+03  0.23136419563E+03  0.28927748881E+03  0.80611571917E+02 0.  0.
        5    1    3    3  501    0  0.97953292624E+01  0.11930472079E+03  0.77168430244E+02  0.14250130352E+03  0.47000000000E+01 0. -1.
        2    1    4    4  502    0  0.98168775195E+01 -0.25875998781E+02  0.63781443391E+02  0.69527051701E+02  0.00000000000E+00 0. -1.
       -1    1    4    4    0  502 -0.39682036220E+02  0.44424434347E+02  0.98131158518E+02  0.11479511591E+03  0.00000000000E+00 0.  1.
       -5    1    5    5    0  503 -0.40600340582E+02  0.34726355410E+01  0.12401878273E+03  0.13062616630E+03  0.47000000000E+01 0.  1.
       13    1    6    6    0    0 -0.13824893640E+02 -0.42225144674E+02  0.95617392677E+02  0.10543612431E+03  0.00000000000E+00 0. -1.
      -14    1    6    6    0    0  0.74495063659E+02 -0.99100647227E+02  0.13574680296E+03  0.18384136451E+03  0.00000000000E+00 0.  1.
</event>
<event>
12   0  0.1523332E-01  0.2308310E+03  0.7957747E-01  0.1133071E+00
       21   -1    0    0  504  503  0.00000000000E+00  0.00000000000E+00  0.37965533511E+03  0.37965533511E+03  0.00000000000E+00 0.  1.
       21   -1    0    0  501  504  0.00000000000E+00  0.00000000000E+00 -0.19588232390E+03  0.19588232390E+03  0.00000000000E+00 0.  1.
        6    2    1    2  501    0  0.62594492937E+02  0.13691984787E+03 -0.62792241594E+02  0.23778421680E+03  0.17301258008E+03 0.  0.
       24    2    3    3    0    0 -0.33362519590E+02  0.59210792877E+02 -0.37423695678E+02  0.11164104971E+03  0.80275869817E+02 0.  0.
       -6    2    1    2    0  503 -0.62594492937E+02 -0.13691984787E+03  0.24656525280E+03  0.33775344221E+03  0.17497956608E+03 0.  0.
      -24    2    5    5    0    0 -0.10111828078E+03 -0.10096395625E+03  0.12308024556E+03  0.20341228923E+03  0.76218012240E+02 0.  0.
        5    1    3    3  501    0  0.95957012527E+02  0.77709054998E+02 -0.25368545915E+02  0.12614316709E+03  0.47000000000E+01 0. -1.
        4    1    4    4  502    0 -0.52592721523E+02  0.24432180201E+02 -0.14074319543E+01  0.58007815433E+02  0.00000000000E+00 0. -1.
       -3    1    4    4    0  502  0.19230201933E+02  0.34778612676E+02 -0.36016263724E+02  0.53633234274E+02  0.00000000000E+00 0.  1.
       -5    1    5    5    0  503  0.38523787843E+02 -0.35955891621E+02  0.12348500724E+03  0.13434115299E+03  0.47000000000E+01 0.  1.
       13    1    6    6    0    0 -0.68119050693E+02 -0.87496038315E+02  0.49052922975E+02  0.12125160222E+03  0.00000000000E+00 0. -1.
      -14    1    6    6    0    0 -0.32999230087E+02 -0.13467917938E+02  0.74027322588E+02  0.82160687007E+02  0.00000000000E+00 0.  1.
</event>
<event>
12   0  0.1523332E-01  0.1731834E+03  0.7957747E-01  0.1179945E+00
       21   -1    0    0  504  503  0.00000000000E+00  0.00000000000E+00  0.14256974333E+03  0.14256974333E+03  0.00000000000E+00 0. -1.
       21   -1    0    0  501  504  0.00000000000E+00  0.00000000000E+00 -0.32083804293E+03  0.32083804293E+03  0.00000000000E+00 0. -1.
        6    2    1    2  501    0 -0.83535286220E+01  0.21309453294E+01 -0.22518750752E+03  0.28398115485E+03  0.17280497792E+03 0.  0.
       24    2    3    3    0    0  0.48747188686E+02 -0.11344175034E+02 -0.64360861538E+02  0.11272295550E+03  0.77840641607E+02 0.  0.
       -6    2    1    2    0  503  0.83535286220E+01 -0.21309453294E+01  0.46919207920E+02  0.17942663142E+03  0.17296873018E+03 0.  0.
      -24    2    5    5    0    0  0.55572550827E+02  0.45413716000E+01 -0.17737103706E+02  0.98948780398E+02  0.79795512612E+02 0.  0.
        5    1    3    3  501    0 -0.57100717308E+02  0.13475120363E+02 -0.16082664599E+03  0.17125819935E+03  0.47000000000E+01 0. -1.
      -11    1    4    4    0    0  0.54536994970E+02 -0.34561348436E+01 -0.76560380643E+01  0.55180101552E+02  0.00000000000E+00 0.  1.
       12    1    4    4    0    0 -0.57898062841E+01 -0.78880401903E+01 -0.56704823474E+02  0.57542853945E+02  0.00000000000E+00 0. -1.
       -5    1    5    5    0  503 -0.47219022205E+02 -0.66723169294E+01  0.64656311626E+02  0.80477851017E+02  0.47000000000E+01 0.  1.
        1    1    6    6  502    0  0.22568930702E+02  0.18645192110E+02  0.28203678852E+02  0.40650305320E+02  0.00000000000E+00 0. -1.
       -2    1    6    6    0  502  0.33003620125E+02 -0.14103820510E+02 -0.45940782558E+02  0.58298475078E+02  0.00000000000E+00 0.  1.
</event>
<event>
12   0  0.1523332E-01  0.2494385E+03  0.7957747E-01  0.1121055E+00
       21   -1    0    0  504  503  0.00000000000E+00  0.00000000000E+00  0.22748314268E+03  0.22748314268E+03  0.00000000000E+00 0.  1.
       21   -1    0    0  501  504  0.00000000000E+00  0.00000000000E+00 -0.11880142031E+04  0.11880142031E+04  0.00000000000E+00 0.  1.
        6    2    1    2  501    0  0.12002995960E+03 -0.13223667873E+03 -0.11013316455E+04  0.11290634907E+04  0.17308738336E+03 0.  0.
       24    2    3    3    0    0  0.93667710929E+02 -0.69803184804E+02 -0.97819996335E+03  0.98843486466E+03  0.80512040665E+02 0.  0.
       -6    2    1    2    0  503 -0.12002995960E+03  0.13223667873E+03  0.14080058512E+03  0.28643385503E+03  0.17414309673E+03 0.  0.
      -24    2    5    5    0    0 -0.58572278783E+02  0.52134274822E+02  0.14751366451E+03  0.18513924966E+03  0.79797030613E+02 0.  0.
        5    1    3    3  501    0  0.26362248667E+02 -0.62433493921E+02 -0.12313168218E+03  0.14062862608E+03  0.47000000000E+01 0. -1.
        2    1    4    4  502    0  0.63502938054E+02 -0.33579276076E+02 -0.82561935812E+03  0.82873850847E+03  0.00000000000E+00 0. -1.
       -1    1    4    4    0  502  0.30164772876E+02 -0.36223908728E+02 -0.15258060523E+03  0.15969635618E+03  0.00000000000E+00 0.  1.
       -5    1    5    5    0  503 -0.61457680813E+02  0.80102403903E+02 -0.67130793960E+01  0.10129460537E+03  0.47000000000E+01 0.  1.
       11    1    6    6    0    0  0.16563746778E+02  0.59552515353E+00  0.45165975326E+02  0.48111097313E+02  0.00000000000E+00 0. -1.
      -12    1    6    6    0    0 -0.75136025561E+02  0.51538749669E+02  0.10234768919E+03  0.13702815235E+03  0.00000000000E+00 0.  1.
</event>
<event>
12   0  0.1523332E-01  0.2144476E+03  0.7957747E-01  0.1144722E+00
        3   -1    0    0  502    0  0.00000000000E+00  0.00000000000E+00  0.19706647442E+03  0.19706647442E+03  0.00000000000E+00 0.  1.
       -3   -1    0    0    0  501  0.00000000000E+00  0.00000000000E+00 -0.37887910212E+03  0.37887910212E+03  0.00000000000E+00 0. -1.
        6    2    1    2  502    0 -0.23263053266E+02  0.12340512487E+03  0.87442723662E+02  0.23200681568E+03  0.17438732210E+03 0.  0.
       24    2    3    3    0    0 -0.74036069092E+02  0.58934659981E+02 -0.19882031389E+01  0.11053945114E+03  0.57099769117E+02 0.  0.
       -6    2    1    2    0  501  0.23263053266E+02 -0.12340512487E+03 -0.26925535136E+03  0.34393876085E+03  0.17327848247E+03 0.  0.
      -24    2    5    5    0    0  0.34803180307E+02 -0.67846051427E+01 -0.16615030950E+03  0.18777775480E+03  0.79982920832E+02 0.  0.
        5    1    3    3  502    0  0.50773015827E+02  0.64470464888E+02  0.89430926801E+02  0.12146736454E+03  0.47000000000E+01 0. -1.
      -13    1    4    4    0    0 -0.80947670253E+02  0.53868982484E+02  0.77809613026E+01  0.97544533173E+02  0.00000000000E+00 0.  1.
       14    1    4    4    0    0  0.69116011610E+01  0.50656774978E+01 -0.97691644415E+01  0.12994917968E+02  0.00000000000E+00 0. -1.
       -5    1    5    5    0  501 -0.11540127041E+02 -0.11662051973E+03 -0.10310504186E+03  0.15616100605E+03  0.47000000000E+01 0.  1.
        3    1    6    6  503    0  0.16302904218E+02 -0.41940599825E+02 -0.11130087600E+03  0.12005283669E+03  0.00000000000E+00 0. -1.
       -4    1    6    6    0  503  0.18500276090E+02  0.35155994683E+02 -0.54849433503E+02  0.67724918110E+02  0.00000000000E+00 0.  1.
</event>
<event>
12   0  0.1523332E-01  0.3816762E+03  0.7957747E-01  0.1059413E+00
        2   -1    0    0  502    0  0.00000000000E+00  0.00000000000E+00  0.62876050852E+03  0.62876050852E+03  0.00000000000E+00 0. -1.
       -2   -1    0    0    0  501  0.00000000000E+00  0.00000000000E+00 -0.26946162214E+03  0.26946162214E+03  0.00000000000E+00 0.  1.
        6    2    1    2  502    0  0.59037476235E+02 -0.33519834586E+03  0.11346317970E+02  0.38146375655E+03  0.17187932966E+03 0.  0.
       24    2    3    3    0    0  0.60333324903E+02 -0.26630430485E+03 -0.50217006227E+02  0.28894240228E+03  0.80049180169E+02 0.  0.
       -6    2    1    2    0  501 -0.59037476235E+02  0.33519834586E+03  0.34795256840E+03  0.51675837411E+03  0.17356518281E+03 0.  0.
      -24    2    5    5    0    0 -0.80242187370E+02  0.24010717876E+03  0.31879671962E+03  0.41495403554E+03  0.80406698980E+02 0.  0.
        5    1    3    3  502    0 -0.12958486680E+01 -0.68894041008E+02  0.61563324197E+02  0.92521354272E+02  0.47000000000E+01 0. -1.
      -13    1    4    4    0    0  0.54312805978E+02 -0.26197255096E+03 -0.32219511989E+02  0.26947652088E+03  0.00000000000E+00 0.  1.
       14    1    4    4    0    0  0.60205189249E+01 -0.43317538839E+01 -0.17997494238E+02  0.19465881401E+02  0.00000000000E+00 0. -1.
       -5    1    5    5    0  501  0.21204711135E+02  0.95091167093E+02  0.29155848786E+02  0.10180433857E+03  0.47000000000E+01 0.  1.
        1    1    6    6  503    0 -0.43845725919E+02  0.20034479929E+03  0.28573699436E+03  0.35171880278E+03  0.00000000000E+00 0. -1.
       -2    1    6    6    0  503 -0.36396461450E+02  0.39762379477E+02  0.33059725260E+02  0.63235232759E+02  0.00000000000E+00 0.  1.
</event>
<event>
12   0  0.1523332E-01  0.1893391E+03  0.7957747E-01  0.1164986E+00
       21   -1    0    0  501  503  0.00000000000E+00  0.00000000000E+00  0.50630870397E+02  0.50630870397E+02  0.00000000000E+00 0. -1.
       21   -1    0    0  503  504  0.00000000000E+00  0.00000000000E+00 -0.88729184996E+03  0.88729184996E+03  0.00000000000E+00 0.  1.
        6    2    1    2  501    0  0.70682028756E+02  0.73823589288E+01 -0.19291463200E+03  0.26690955744E+03  0.17021811948E+03 0.  0.
       24    2    3    3    0    0  0.19672681246E+02  0.21332836318E+02 -0.22645959559E+02  0.88555751292E+02  0.80543015277E+02 0.  0.
       -6    2    1    2    0  504 -0.70682028756E+02 -0.73823589288E+01 -0.64374634757E+03  0.67101316292E+03  0.17549602957E+03 0.  0.
      -24    2    5    5    0    0 -0.23548123539E+02 -0.54675680851E+02 -0.52896114805E+03  0.53813729850E+03  0.79043732730E+02 0.  0.
        5    1    3    3  501    0  0.51009347509E+02 -0.13950477389E+02 -0.17026867244E+03  0.17835380614E+03  0.47000000000E+01 0. -1.
      -11    1    4    4    0    0  0.34828517583E+02  0.44523612954E+02 -0.76191852745E+01  0.57038844061E+02  0.00000000000E+00 0.  1.
       12    1    4    4    0    0 -0.15155836337E+02 -0.23190776636E+02 -0.15026774285E+02  0.31516907232E+02  0.00000000000E+00 0. -1.
       -5    1    5    5    0  504 -0.47133905216E+02  0.47293321922E+02 -0.11478519952E+03  0.13287586443E+03  0.47000000000E+01 0.  1.
        1    1    6    6  502    0 -0.42000747871E+02 -0.37377539592E+01 -0.29416055792E+03  0.29716740646E+03  0.00000000000E+00 0. -1.
       -2    1    6    6    0  502  0.18452624332E+02 -0.50937926892E+02 -0.23480059013E+03  0.24096989203E+03  0.00000000000E+00 0.  1.
</event>
<event>
12   0  0.1523332E-01  0.2421894E+03  0.7957747E-01  0.1125596E+00
       21   -1    0    0  501  503  0.00000000000E+00  0.00000000000E+00  0.10153794985E+03  0.10153794985E+03  0.00000000000E+00 0.  1.
       21   -1    0    0  503  504  0.00000000000E+00  0.00000000000E+00 -0.59006793830E+03  0.59006793830E+03  0.00000000000E+00 0. -1.
        6    2    1    2  501    0 -0.12864886285E+03  0.10997216566E+03 -0.18585934205E+03  0.30528576345E+03  0.17323768413E+03 0.  0.
       24    2    3    3    0    0 -0.12826666757E+03  0.34607126153E+02 -0.16613587859E+03  0.22724000594E+03  0.79918076531E+02 0.  0.
       -6    2    1    2    0  504  0.12864886285E+03 -0.10997216566E+03 -0.30267064640E+03  0.38632012470E+03  0.17026247801E+03 0.  0.
      -24    2    5    5    0    0  0.86510479761E+02 -0.12300831100E+03 -0.29422792688E+03  0.34116534723E+03  0.84903554170E+02 0.  0.
        5    1    3    3  501    0 -0.38219528396E+00  0.75365039511E+02 -0.19723463466E+02  0.78045757507E+02  0.47000000000E+01 0. -1.
      -13    1    4    4    0    0 -0.69371117104E+02 -0.19825715017E+02 -0.57775931807E+02  0.92430888562E+02  0.00000000000E+00 0.  1.
       14    1    4    4    0    0 -0.58895550467E+02  0.54432841170E+02 -0.10835994678E+03  0.13480911738E+03  0.00000000000E+00 0. -1.
       -5    1    5    5    0  504  0.42138383094E+02  0.13036145340E+02 -0.84427195227E+01  0.45154777466E+02  0.47000000000E+01 0.  1.
        1    1    6    6  502    0  0.10380854753E+03 -0.10552449782E+03 -0.25572683636E+03  0.29547901620E+03  0.00000000000E+00 0. -1.
       -2    1    6    6    0  502 -0.17298067765E+02 -0.17483813185E+02 -0.38501090514E+02  0.45686331027E+02  0.00000000000E+00 0.  1.
</event>
<event>
12   0  0.1523332E-01  0.1979208E+03  0.7957747E-01  0.1157691E+00
       21   -1    0    0  501  503  0.00000000000E+00  0.00000000000E+00  0.61465287359E+03  0.61465287359E+03  0.00000000000E+00 0. -1.
       21   -1    0    0  503  504  0.00000000000E+00  0.00000000000E+00 -0.64028307890E+02  0.64028307890E+02  0.00000000000E+00 0.  1.
        6    2    1    2  501    0 -0.90275629164E+02  0.26939637038E+02  0.24064367438E+03  0.31157987983E+03  0.17406093827E+03 0.  0.
       24    2    3    3    0    0  0.17942756769E+02 -0.94831039204E+01  0.11210017181E+03  0.13958174854E+03  0.80651994560E+02 0.  0.
       -6    2    1    2    0  504  0.90275629164E+02 -0.26939637038E+02  0.30998089132E+03  0.36710130165E+03  0.17262612614E+03 0.  0.
      -24    2    5    5    0    0  0.74671531218E+02 -0.55944453172E+02  0.30973775750E+03  0.33383094930E+03  0.82462142058E+02 0.  0.
        5    1    3    3  501    0 -0.10821838593E+03  0.36422740958E+02  0.12854350258E+03  0.17199813129E+03  0.47000000000E+01 0. -1.
      -13    1    4    4    0    0 -0.12139066005E+02 -0.33219713302E+02  0.86625683860E+02  0.93567704789E+02  0.00000000000E+00 0.  1.
       14    1    4    4    0    0  0.30081822774E+02  0.23736609382E+02  0.25474487948E+02  0.46014043753E+02  0.00000000000E+00 0. -1.
       -5    1    5    5    0  504  0.15604097946E+02  0.29004816134E+02  0.24313382204E+00  0.33270352354E+02  0.47000000000E+01 0.  1.
        3    1    6    6  502    0  0.91232255073E+02 -0.44046641059E+02  0.22637182673E+03  0.24800732830E+03  0.00000000000E+00 0. -1.
       -4    1    6    6    0  502 -0.16560723855E+02 -0.11897812113E+02  0.83365930772E+02  0.85823620998E+02  0.00000000000E+00 0.  1.
</event>
<event>
12   0  0.1523332E-01  0.1840894E+03  0.7957747E-01  0.1169661E+00
       21   -1    0    0  501  503  0.00000000000E+00  0.00000000000E+00  0.29114740329E+03  0.29114740329E+03  0.00000000000E+00 0.  1.
       21   -1    0    0  503  504  0.00000000000E+00  0.00000000000E+00 -0.11318201466E+03  0.11318201466E+03  0.00000000000E+00 0.  1.
        6    2    1    2  501    0  0.37482823902E+02  0.20310036594E+02  0.94575910758E+02  0.20696258601E+03  0.17908503409E+03 0.  0.
       24    2    3    3    0    0 -0.86122433014E+01  0.74792627575E+02  0.72999810471E+02  0.13225832881E+03  0.80592712668E+02 0.  0.
       -6    2    1    2    0  504 -0.37482823902E+02 -0.20310036594E+02  0.83389477872E+02  0.19736683195E+03  0.17373083105E+03 0.  0.
      -24    2    5    5    0    0  0.16687367540E+02 -0.22959350856E+02  0.10782034667E+03  0.13769786299E+03  0.80807637561E+02 0.  0.
        5    1    3    3  501    0  0.46095067203E+02 -0.54482590981E+02  0.21576100287E+02  0.74704257202E+02  0.47000000000E+01 0. -1.
        2    1    4    4  502    0 -0.41830576184E+02  0.54721551423E+02  0.32488779122E+02  0.76156195171E+02  0.00000000000E+00 0. -1.
       -1    1    4    4    0  502  0.33218332883E+02  0.20071076152E+02  0.40511031349E+02  0.56102133634E+02  0.00000000000E+00 0.  1.
       -5    1    5    5    0  504 -0.54170191442E+02  0.26493142623E+01 -0.24430868795E+02  0.59668968962E+02  0.47000000000E+01 0.  1.
       11    1    6    6    0    0  0.37748766462E+02  0.35142428156E+01  0.18498311458E+02  0.42184200820E+02  0.00000000000E+00 0. -1.
      -12    1    6    6    0    0 -0.21061398922E+02 -0.26473593672E+02  0.89322035209E+02  0.95513662166E+02  0.00000000000E+00 0.  1.
</event>
<event>
12   0  0.1523332E-01  0.2455852E+03  0.7957747E-01  0.1123447E+00
        2   -1    0    0  502    0  0.00000000000E+00  0.00000000000E+00  0.39091704252E+03  0.39091704252E+03  0.00000000000E+00 0.  1.
       -2   -1    0    0    0  501  0.00000000000E+00  0.00000000000E+00 -0.15662799144E+03  0.15662799144E+03  0.00000000000E+00 0. -1.
        6    2    1    2  502    0 -0.15989715931E+03  0.69964940478E+02  0.83590589359E+02  0.25929977363E+03  0.17258850344E+03 0.  0.
       24    2    3    3    0    0 -0.16954678824E+03  0.49269539026E+02  0.11083895032E+03  0.22343923606E+03  0.80412800120E+02 0.  0.
       -6    2    1    2    0  501  0.15989715931E+03 -0.69964940478E+02  0.15069846171E+03  0.28824526033E+03  0.17295406699E+03 0.  0.
      -24    2    5    5    0    0  0.18347968064E+03 -0.43360983742E+02  0.14670403444E+03  0.25216269840E+03  0.80740229296E+02 0.  0.
        5    1    3    3  502    0  0.96496289239E+01  0.20695401453E+02 -0.27248360964E+02  0.35860537571E+02  0.47000000000E+01 0. -1.
      -11    1    4    4    0    0 -0.13873402341E+03  0.66379622685E+01  0.63686960339E+02  0.15279797352E+03  0.00000000000E+00 0.  1.
       12    1    4    4    0    0 -0.30812764826E+02  0.42631576757E+02  0.47151989984E+02  0.70641262534E+02  0.00000000000E+00 0. -1.
       -5    1    5    5    0  501 -0.23582521322E+02 -0.26603956736E+02  0.39944272708E+01  0.36082561926E+02  0.47000000000E+01 0.  1.
        1    1    6    6  503    0  0.10233302406E+03 -0.60625476671E+02  0.64216997731E+02  0.13517144311E+03  0.00000000000E+00 0. -1.
       -2    1    6    6    0  503  0.81146656577E+02  0.17264492929E+02  0.82487036713E+02  0.11699125529E+03  0.00000000000E+00 0.  1.
</event>
<event>
12   0  0.1523332E-01  0.1872351E+03  0.7957747E-01  0.1166839E+00
       21   -1    0    0  504  503  0.00000000000E+00  0.00000000000E+00  0.24325587649E+03  0.24325587649E+03  0.00000000000E+00 0.  1.
       21   -1    0    0  501  504  0.00000000000E+00  0.00000000000E+00 -0.24267852084E+03  0.24267852084E+03  0.00000000000E+00 0.  1.
        6    2    1    2  501    0 -0.71039464081E+02  0.35673104455E+01 -0.15500820705E+03  0.24249274010E+03  0.17238286918E+03 0.  0.
       24    2    3    3    0    0 -0.10366701595E+03 -0.23118958552E+02 -0.78150454362E+02  0.15470938039E+03  0.80908358172E+02 0.  0.
       -6    2    1    2    0  503  0.71039464081E+02 -0.35673104455E+01  0.15558556270E+03  0.24344165723E+03  0.17319827364E+03 0.  0.
      -24    2    5    5    0    0  0.10712762766E+03  0.87101658964E+01  0.71478502005E+02  0.15097988332E+03  0.78317005300E+02 0.  0.
        5    1    3    3  501    0  0.32627551870E+02  0.26686268997E+02 -0.76857752691E+02  0.87783359714E+02  0.47000000000E+01 0. -1.
        2    1    4    4  502    0 -0.39671199967E+02 -0.19809329947E+02 -0.79032449031E+02  0.90621971175E+02  0.00000000000E+00 0. -1.
       -1    1    4    4    0  502 -0.63995815983E+02 -0.33096286048E+01  0.88199466955E+00  0.64087409212E+02  0.00000000000E+00 0.  1.
       -5    1    5    5    0  503 -0.36088163581E+02 -0.12277476342E+02  0.84107060697E+02  0.92461773913E+02  0.47000000000E+01 0.  1.
       13    1    6    6    0    0  0.10741692295E+02  0.25699363271E+02 -0.29681909943E+01  0.28011629436E+02  0.00000000000E+00 0. -1.
      -14    1    6    6    0    0  0.96385935367E+02 -0.16989197375E+02  0.74446692999E+02  0.12296825388E+03  0.00000000000E+00 0.  1.
</event>
<event>
12   0  0.1523332E-01  0.1921359E+03  0.7957747E-01  0.1162562E+00
       21   -1    0    0  501  503  0.00000000000E+00  0.00000000000E+00  0.14642542402E+03  0.14642542402E+03  0.00000000000E+00 0.  1.
       21   -1    0    0  503  504  0.00000000000E+00  0.00000000000E+00 -0.27087645611E+03  0.27087645611E+03  0.00000000000E+00 0.  1.
        6    2    1    2  501    0 -0.60787578940E+02  0.23937160347E+02 -0.12543312765E+03  0.22516345734E+03  0.17520558099E+03 0.  0.
       24    2    3    3    0    0 -0.23121901373E+02  0.38252694045E+02  0.10742950482E+01  0.92310697604E+02  0.80760261623E+02 0.  0.
       -6    2    1    2    0  504  0.60787578940E+02 -0.23937160347E+02  0.98209556338E+00  0.19213842279E+03  0.18068782914E+03 0.  0.
      -24    2    5    5    0    0  0.32162736409E+02 -0.57462226881E+02  0.57454310384E+02  0.12034348743E+03  0.82735772519E+02 0.  0.
        5    1    3    3  501    0 -0.37665677567E+02 -0.14315533698E+02 -0.12650742270E+03  0.13285275974E+03  0.47000000000E+01 0. -1.
        4    1    4    4  502    0 -0.45165001478E+02  0.36407203082E+02 -0.20387606367E+02  0.61489969004E+02  0.00000000000E+00 0. -1.
       -3    1    4    4    0  502  0.22043100105E+02  0.18454909633E+01  0.21461901415E+02  0.30820728600E+02  0.00000000000E+00 0.  1.
       -5    1    5    5    0  504  0.28624842532E+02  0.33525066534E+02 -0.56472214821E+02  0.71794935356E+02  0.47000000000E+01 0.  1.
       11    1    6    6    0    0 -0.49839984041E+01  0.87289386397E+01  0.41607791857E+02  0.42804707137E+02  0.00000000000E+00 0. -1.
      -12    1    6    6    0    0  0.37146734813E+02 -0.66191165521E+02  0.15846518527E+02  0.77538780295E+02  0.00000000000E+00 0.  1.
</event>
<event>
12   0  0.1523332E-01  0.1840766E+03  0.7957747E-01  0.1169672E+00
        2   -1    0    0  502    0  0.00000000000E+00  0.00000000000E+00  0.10032883698E+04  0.10032883698E+04  0.00000000000E+00 0. -1.
       -2   -1    0    0    0  501  0.00000000000E+00  0.00000000000E+00 -0.46622393539E+02  0.46622393539E+02  0.00000000000E+00 0.  1.
        6    2    1    2  502    0  0.43209290051E+02 -0.34704638732E+02  0.75759387126E+03  0.78010822670E+03  0.17762014779E+03 0.  0.
       24    2    3    3    0    0  0.95764287664E+02 -0.16172161279E+02  0.59359169177E+03  0.60683305430E+03  0.80392298484E+02 0.  0.
       -6    2    1    2    0  501 -0.43209290051E+02  0.34704638732E+02  0.19907210499E+03  0.26980253663E+03  0.17347118230E+03 0.  0.
      -24    2    5    5    0    0 -0.64976079720E+02 -0.31546692538E+02  0.95379401969E+02  0.14475335155E+03  0.81481394934E+02 0.  0.
        5    1    3    3  502    0 -0.52554997613E+02 -0.18532477453E+02  0.16400217949E+03  0.17327517241E+03  0.47000000000E+01 0. -1.
      -13    1    4    4    0    0  0.73560241053E+00 -0.28237152885E+02  0.94478690065E+02  0.98610855337E+02  0.00000000000E+00 0.  1.
       14    1    4    4    0    0  0.95028685253E+02  0.12064991606E+02  0.49911300171E+03  0.50822219896E+03  0.00000000000E+00 0. -1.
       -5    1    5    5    0  501  0.21766789669E+02  0.66251331271E+02  0.10369270302E+03  0.12504918508E+03  0.47000000000E+01 0.  1.
        1    1    6    6  503    0 -0.45961193687E+02  0.99471987125E+01  0.86205022456E+02  0.98197168921E+02  0.00000000000E+00 0. -1.
       -2    1    6    6    0  503 -0.19014886033E+02 -0.41493891251E+02  0.91743795130E+01  0.46556182634E+02  0.00000000000E+00 0.  1.
</event>
<event>
12   0  0.1523332E-01  0.2175430E+03  0.7957747E-01  0.1142436E+00
       21   -1    0    0  501  503  0.00000000000E+00  0.00000000000E+00  0.87807032784E+02  0.87807032784E+02  0.00000000000E+00 0. -1.
       21   -1    0    0  503  504  0.00000000000E+00  0.00000000000E+00 -0.60746669058E+03  0.60746669058E+03  0.00000000000E+00 0.  1.
        6    2    1    2  501    0 -0.41052185215E+02 -0.12354979750E+03 -0.13935836107E+03  0.25714815571E+03  0.17249517910E+03 0.  0.
       24    2    3    3    0    0  0.16558716893E+02 -0.13404512949E+03 -0.94248210801E+02  0.18307937894E+03  0.79956525119E+02 0.  0.
       -6    2    1    2    0  504  0.41052185215E+02  0.12354979750E+03 -0.38030129673E+03  0.43812556766E+03  0.17428454425E+03 0.  0.
      -24    2    5    5    0    0 -0.42849801043E+02  0.64901121662E+02 -0.23421014725E+03  0.25967690716E+03  0.80804962692E+02 0.  0.
        5    1    3    3  501    0 -0.57610902107E+02  0.10495331988E+02 -0.45110150265E+02  0.74068776769E+02  0.47000000000E+01 0. -1.
        2    1    4    4  502    0 -0.11580310505E+02 -0.81786279471E+02 -0.92060395218E+02  0.12368595502E+03  0.00000000000E+00 0. -1.
       -1    1    4    4    0  502  0.28139027398E+02 -0.52258850018E+02 -0.21878155829E+01  0.59393423922E+02  0.00000000000E+00 0.  1.
       -5    1    5    5    0  504  0.83901986258E+02  0.58648675840E+02 -0.14609114949E+03  0.17844866050E+03  0.47000000000E+01 0.  1.
       13    1    6    6    0    0 -0.33612006391E+02 -0.39969323887E+01 -0.35016839785E+02  0.48702376849E+02  0.00000000000E+00 0. -1.
      -14    1    6    6    0    0 -0.92377946516E+01  0.68898054050E+02 -0.19919330746E+03  0.21097453031E+03  0.00000000000E+00 0.  1.
</event>
<event>
12   0  0.1523332E-01  0.1808389E+03  0.7957747E-01  0.1172642E+00
       21   -1    0    0  504  503  0.00000000000E+00  0.00000000000E+00  0.41776089325E+03  0.41776089325E+03  0.00000000000E+00 0.  1.
       21   -1    0    0  501  504  0.00000000000E+00  0.00000000000E+00 -0.79205208746E+02  0.79205208746E+02  0.00000000000E+00 0.  1.
        6    2    1    2  501    0  0.48831947902E+02  0.19915100210E+02  0.20670140548E+03  0.27316204667E+03  0.17061905627E+03 0.  0.
       24    2    3    3    0    0  0.13332540449E+02  0.72310991751E+02  0.16203420543E+03  0.19555543522E+03  0.81118483429E+02 0.  0.
       -6    2    1    2    0  503 -0.48831947902E+02 -0.19915100210E+02  0.13185427902E+03  0.22380405533E+03  0.17297842042E+03 0.  0.
      -24    2    5    5    0    0 -0.93835550053E+02 -0.23330240845E+02  0.60705418568E+02  0.13941662892E+03  0.80015235942E+02 0.  0.
        5    1    3    3  501    0  0.35499407453E+02 -0.52395891541E+02  0.44667200053E+02  0.77606611448E+02  0.47000000000E+01 0. -1.
        2    1    4    4  502    0  0.25320289121E+02  0.32131083705E+02  0.14437421231E+03  0.15005811128E+03  0.00000000000E+00 0. -1.
       -1    1    4    4    0  502 -0.11987748671E+02  0.40179908046E+02  0.17659993116E+02  0.45497323940E+02  0.00000000000E+00 0.  1.
       -5    1    5    5    0  503  0.45003602151E+02  0.34151406352E+01  0.71148860456E+02  0.84387426411E+02  0.47000000000E+01 0.  1.
       13    1    6    6    0    0 -0.33080203110E+02  0.31970815662E+01 -0.16954312695E+02  0.37309112658E+02  0.00000000000E+00 0. -1.
      -14    1    6    6    0    0 -0.60755346943E+02 -0.26527322412E+02  0.77659731262E+02  0.10210751626E+03  0.00000000000E+00 0.  1.
</event>
<event>
12   0  0.1523332E-01  0.2094541E+03  0.7957747E-01  0.1148502E+00
       21   -1    0    0  501  503  0.00000000000E+00  0.00000000000E+00  0.34519390340E+03  0.34519390340E+03  0.00000000000E+00 0. -1.
       21   -1    0    0  503  504  0.00000000000E+00  0.00000000000E+00 -0.16377470089E+03  0.16377470089E+03  0.00000000000E+00 0. -1.
        6    2    1    2  501    0  0.32836729242E+02 -0.11132898205E+03  0.21225655118E+03  0.29725662975E+03  0.17273177873E+03 0.  0.
       24    2    3    3    0    0 -0.10598348599E+02 -0.14090708250E+02  0.37014294051E+02  0.92137575150E+02  0.82513039808E+02 0.  0.
       -6    2    1    2    0  504 -0.32836729242E+02  0.11132898205E+03 -0.30837348669E+02  0.21171197454E+03  0.17435201478E+03 0.  0.
      -24    2    5    5    0    0  0.47620904333E+02  0.68438111938E+02 -0.36116614853E+02  0.12026243549E+03  0.78785264024E+02 0.  0.
        5    1    3    3  501    0  0.43435077842E+02 -0.97238273804E+02  0.17524225712E+03  0.20511905460E+03  0.47000000000E+01 0. -1.
      -13    1    4    4    0    0 -0.46112724938E+02 -0.14726852972E+02  0.26006614960E+02  0.54950956510E+02  0.00000000000E+00 0.  1.
       14    1    4    4    0    0  0.35514376339E+02  0.63614472229E+00  0.11007679091E+02  0.37186618640E+02  0.00000000000E+00 0. -1.
       -5    1    5    5    0  504 -0.80457633575E+02  0.42890870116E+02  0.52792661844E+01  0.91449539044E+02  0.47000000000E+01 0.  1.
        1    1    6    6  502    0  0.26516478473E+01  0.66940890788E+02 -0.86557539942E+01  0.67550249245E+02  0.00000000000E+00 0. -1.
       -2    1    6    6    0  502  0.44969256486E+02  0.14972211495E+01 -0.27460860859E+02  0.52712186249E+02  0.00000000000E+00 0.  1.
</event>
<event>
12   0  0.1523332E-01  0.1826531E+03  0.7957747E-01  0.1170970E+00
        2   -1    0    0  502    0  0.00000000000E+00  0.00000000000E+00  0.23323695989E+03  0.23323695989E+03  0.00000000000E+00 0. -1.
       -2   -1    0    0    0  501  0.00000000000E+00  0.00000000000E+00 -0.14364982272E+03  0.14364982272E+03  0.00000000000E+00 0.  1.
        6    2    1    2  502    0 -0.50254542479E+02 -0.29035282141E+02  0.32558030906E+02  0.18570608637E+03  0.17337288857E+03 0.  0.
       24    2    3    3    0    0 -0.10029118820E+03 -0.15905547612E+02  0.32910718859E+02  0.13376120951E+03  0.80607920685E+02 0.  0.
       -6    2    1    2    0  501  0.50254542479E+02  0.29035282141E+02  0.57029106261E+02  0.19118069624E+03  0.17300050001E+03 0.  0.
      -24    2    5    5    0    0 -0.25859915765E+02  0.49209396124E+02  0.67081690159E+01  0.97614183246E+02  0.79957672108E+02 0.  0.
        5    1    3    3  502    0  0.50036645722E+02 -0.13129734529E+02 -0.35268795308E+00  0.51944876867E+02  0.47000000000E+01 0. -1.
        2    1    4    4  503    0 -0.79973899172E+02  0.12167745966E+02  0.50024005264E+02  0.95111932444E+02  0.00000000000E+00 0. -1.
       -1    1    4    4    0  503 -0.20317289029E+02 -0.28073293578E+02 -0.17113286405E+02  0.38649277062E+02  0.00000000000E+00 0.  1.
       -5    1    5    5    0  501  0.76114458243E+02 -0.20174113983E+02  0.50320937245E+02  0.93566512994E+02  0.47000000000E+01 0.  1.
       13    1    6    6    0    0 -0.18758157953E+02 -0.77173480821E+01  0.29570327886E+02  0.35858475184E+02  0.00000000000E+00 0. -1.
      -14    1    6    6    0    0 -0.71017578115E+01  0.56926744206E+02 -0.22862158871E+02  0.61755708062E+02  0.00000000000E+00 0.  1.
</event>
<event>
12   0  0.1523332E-01  0.2329290E+03  0.7957747E-01  0.1131655E+00
       -1   -1    0    0    0  501  0.00000000000E+00  0.00000000000E+00  0.66545578667E+02  0.66545578667E+02  0.00000000000E+00 0. -1.
        1   -1    0    0  502    0  0.00000000000E+00  0.00000000000E+00 -0.16431853036E+04  0.16431853036E+04  0.00000000000E+00 0.  1.
        6    2    1    2  502    0 -0.13654429167E+03  0.71387960905E+02 -0.13953799523E+04  0.14147146977E+04  0.17490534589E+03 0.  0.
       24    2    3    3    0    0 -0.79256192471E+02  0.10132424794E+03 -0.74236911706E+03  0.75849571859E+03  0.87496867850E+02 0.  0.
       -6    2    1    2    0  501  0.13654429167E+03 -0.71387960905E+02 -0.18125977262E+03  0.29501618457E+03  0.17446735923E+03 0.  0.
      -24    2    5    5    0    0  0.12456839126E+03 -0.44768909559E+02 -0.53397978927E+02  0.16378080682E+03  0.80319793117E+02 0.  0.
        5    1    3    3  502    0 -0.57288099196E+02 -0.29936287035E+02 -0.65301083528E+03  0.65621897914E+03  0.47000000000E+01 0. -1.
      -11    1    4    4    0    0 -0.64311382441E+02  0.10315985858E+03 -0.72657499179E+03  0.73667437110E+03  0.00000000000E+00 0.  1.
       12    1    4    4    0    0 -0.14944810029E+02 -0.18356106434E+01 -0.15794125269E+02  0.21821347489E+02  0.00000000000E+00 0. -1.
       -5    1    5    5    0  501  0.11975900408E+02 -0.26619051346E+02 -0.12786179369E+03  0.13123537774E+03  0.47000000000E+01 0.  1.
        3    1    6    6  503    0  0.45155916259E+02 -0.48345264454E+02  0.31467594669E+01  0.66228569843E+02  0.00000000000E+00 0. -1.
       -4    1    6    6    0  503  0.79412475000E+02  0.35763548943E+01 -0.56544738394E+02  0.97552236981E+02  0.00000000000E+00 0.  1.
</event>
<event>
12   0  0.1523332E-01  0.2395620E+03  0.7957747E-01  0.1127285E+00
       21   -1    0    0  504  503  0.00000000000E+00  0.00000000000E+00  0.84188125174E+02  0.84188125174E+02  0.00000000000E+00 0.  1.
       21   -1    0    0  501  504  0.00000000000E+00  0.00000000000E+00 -0.78261596648E+03  0.78261596648E+03  0.00000000000E+00 0.  1.
        6    2    1    2  501    0 -0.53377496380E+02  0.15789455619E+03 -0.50508550410E+03  0.55901818813E+03  0.17207591411E+03 0.  0.
       24    2    3    3    0    0 -0.96604022707E+02  0.12294555138E+03 -0.27877952986E+03  0.32593783827E+03  0.63792651137E+02 0.  0.
       -6    2    1    2    0  503  0.53377496380E+02 -0.15789455619E+03 -0.19334233721E+03  0.30778590353E+03  0.17196236524E+03 0.  0.
      -24    2    5    5    0    0  0.14957885882E+02 -0.48957830238E+02 -0.16564130245E+02  0.96561138908E+02  0.80181516853E+02 0.  0.
        5    1    3    3  501    0  0.43226526327E+02  0.34949004810E+02 -0.22630597424E+03  0.23308034986E+03  0.47000000000E+01 0. -1.
        4    1    4    4  502    0 -0.77892610987E+02  0.89239438592E+02 -0.14783556019E+03  0.18943676809E+03  0.00000000000E+00 0. -1.
       -3    1    4    4    0  502 -0.18711411720E+02  0.33706112783E+02 -0.13094396967E+03  0.13650107018E+03  0.00000000000E+00 0.  1.
       -5    1    5    5    0  503  0.38419610497E+02 -0.10893672595E+03 -0.17677820696E+03  0.21122476462E+03  0.47000000000E+01 0.  1.
       11    1    6    6    0    0 -0.29407733386E+02 -0.25237874182E+02 -0.24182819979E+02  0.45679030838E+02  0.00000000000E+00 0. -1.
      -12    1    6    6    0    0  0.44365619269E+02 -0.23719956056E+02  0.76186897342E+01  0.50882108070E+02  0.00000000000E+00 0.  1.
</event>
<event>
12   0  0.1523332E-01  0.1800928E+03  0.7957747E-01  0.1173336E+00
       21   -1    0    0  504  503  0.00000000000E+00  0.00000000000E+00  0.31768853830E+03  0.31768853830E+03  0.00000000000E+00 0. -1.
       21   -1    0    0  501  504  0.00000000000E+00  0.00000000000E+00 -0.10172794538E+03  0.10172794538E+03  0.00000000000E+00 0. -1.
        6    2    1    2  501    0 -0.59752321652E+01 -0.47272891108E+02  0.10379513569E+03  0.20786255993E+03  0.17367493773E+03 0.  0.
       24    2    3    3    0    0  0.37745298847E+02 -0.13034430620E+02  0.12200580913E+03  0.14923257071E+03  0.76094275305E+02 0.  0.
       -6    2    1    2    0  503  0.59752321652E+01  0.47272891108E+02  0.11216545722E+03  0.21155392375E+03  0.17292640986E+03 0.  0.
      -24    2    5    5    0    0 -0.61762571287E+02  0.22063725911E+02  0.36985476473E+02  0.10716028634E+03  0.76249447771E+02 0.  0.
        5    1    3    3  501    0 -0.43720531012E+02 -0.34238460488E+02 -0.18210673437E+02  0.58629989217E+02  0.47000000000E+01 0. -1.
        2    1    4    4  502    0  0.40075792862E+02 -0.40503036035E+02  0.68985519896E+02  0.89473834482E+02  0.00000000000E+00 0. -1.
       -1    1    4    4    0  502 -0.23304940150E+01  0.27468605415E+02  0.53020289229E+02  0.59758736229E+02  0.00000000000E+00 0.  1.
       -5    1    5    5    0  503  0.67737803452E+02  0.25209165198E+02  0.75179980752E+02  0.10439363741E+03  0.47000000000E+01 0.  1.
       11    1    6    6    0    0 -0.41907918927E+02  0.30314979725E+02  0.57571366021E+02  0.77393370840E+02  0.00000000000E+00 0. -1.
      -12    1    6    6    0    0 -0.19854652360E+02 -0.82512538142E+01 -0.20585889548E+02  0.29766915499E+02  0.00000000000E+00 0.  1.
</event>
<event>
12   0  0.1523332E-01  0.2057133E+03  0.7957747E-01  0.1151410E+00
       21   -1    0    0  504  503  0.00000000000E+00  0.00000000000E+00  0.39010079453E+03  0.39010079453E+03  0.00000000000E+00 0. -1.
       21   -1    0    0  501  504  0.00000000000E+00  0.00000000000E+00 -0.31732765095E+03  0.31732765095E+03  0.00000000000E+00 0.  1.
        6    2    1    2  501    0 -0.96789250002E+02  0.43737791293E+02 -0.25169155951E+03  0.32324709575E+03  0.17279725251E+03 0.  0.
       24    2    3    3    0    0 -0.13149693087E+03  0.12140063345E+02 -0.17196696154E+03  0.23061264727E+03  0.78554014871E+02 0.  0.
       -6    2    1    2    0  503  0.96789250002E+02 -0.43737791293E+02  0.32446470310E+03  0.38418134973E+03  0.17617267843E+03 0.  0.
      -24    2    5    5    0    0  0.68781143334E+02 -0.79556209017E+02  0.30841775395E+03  0.33573542458E+03  0.80850035832E+02 0.  0.
        5    1    3    3  501    0  0.34707680871E+02  0.31597727949E+02 -0.79724597973E+02  0.92634448478E+02  0.47000000000E+01 0. -1.
        4    1    4    4  502    0 -0.46902110821E+02  0.18009852546E+02 -0.15385806804E+02  0.52544132301E+02  0.00000000000E+00 0. -1.
       -3    1    4    4    0  502 -0.84594820052E+02 -0.58697892015E+01 -0.15658115474E+03  0.17806851497E+03  0.00000000000E+00 0.  1.
       -5    1    5    5    0  503  0.28008106668E+02  0.35818417724E+02  0.16046949146E+02  0.48445925157E+02  0.47000000000E+01 0.  1.
       13    1    6    6    0    0  0.16039408280E+02 -0.38778902747E+02  0.22534840622E+03  0.22922253402E+03  0.00000000000E+00 0. -1.
      -14    1    6    6    0    0  0.52741735054E+02 -0.40777306270E+02  0.83069347731E+02  0.10651289056E+03  0.00000000000E+00 0.  1.
</event>
<event>
12   0  0.1523332E-01  0.2214481E+03  0.7957747E-01  0.1139609E+00
       21   -1    0    0  501  503  0.00000000000E+00  0.00000000000E+00  0.40605998007E+03  0.40605998007E+03  0.00000000000E+00 0. -1.
       21   -1    0    0  503  504  0.00000000000E+00  0.00000000000E+00 -0.12130799880E+03  0.12130799880E+03  0.00000000000E+00 0.  1.
        6    2    1    2  501    0 -0.12071284575E+03 -0.59688057207E+02  0.11388951214E+03  0.24901820145E+03  0.17579814668E+03 0.  0.
       24    2    3    3    0    0 -0.72876536696E+02 -0.70727552748E+02  0.13864675341E+03  0.19383492571E+03  0.89641953767E+02 0.  0.
       -6    2    1    2    0  504  0.12071284575E+03  0.59688057207E+02  0.17086246914E+03  0.27834977742E+03  0.17363858997E+03 0.  0.
      -24    2    5    5    0    0  0.34170518574E+02  0.69413614761E+02  0.15309028376E+03  0.18934358979E+03  0.80177838332E+02 0.  0.
        5    1    3    3  501    0 -0.47836309055E+02  0.11039495541E+02 -0.24757241275E+02  0.55183275739E+02  0.47000000000E+01 0. -1.
      -13    1    4    4    0    0  0.37894780825E+01  0.11849148325E+02 -0.30389144791E+01  0.12806149358E+02  0.00000000000E+00 0.  1.
       14    1    4    4    0    0 -0.76666014779E+02 -0.82576701073E+02  0.14168566789E+03  0.18102877635E+03  0.00000000000E+00 0. -1.
       -5    1    5    5    0  504  0.86542327178E+02 -0.97255575543E+01  0.17772185380E+02  0.89006187629E+02  0.47000000000E+01 0.  1.
        1    1    6    6  502    0  0.30638102913E+02  0.98502677058E+01  0.11291269494E+03  0.11740953029E+03  0.00000000000E+00 0. -1.
       -2    1    6    6    0  502  0.35324156609E+01  0.59563347056E+02  0.40177588814E+02  0.71934059498E+02  0.00000000000E+00 0.  1.
</event>
<event>
12   0  0.1523332E-01  0.1818668E+03  0.7957747E-01  0.1171692E+00
       21   -1    0    0  501  503  0.00000000000E+00  0.00000000000E+00  0.76711446044E+03  0.76711446044E+03  0.00000000000E+00 0.  1.
       21   -1    0    0  503  504  0.00000000000E+00  0.00000000000E+00 -0.48320452250E+02  0.48320452250E+02  0.00000000000E+00 0.  1.
        6    2    1    2  501    0 -0.38326126674E+02 -0.37111755569E+02  0.49485388951E+03  0.52694801189E+03  0.17305392480E+03 0.  0.
       24    2    3    3    0    0  0.26184668576E+02 -0.72751934579E+02  0.30871071043E+03  0.32669008276E+03  0.73794488849E+02 0.  0.
       -6    2    1    2    0  504  0.38326126674E+02  0.37111755569E+02  0.22394011868E+03  0.28848690080E+03  0.17386587011E+03 0.  0.
      -24    2    5    5    0    0 -0.12097312404E+02 -0.60859797255E+01  0.20212509805E+03  0.21844011166E+03  0.81719905799E+02 0.  0.
        5    1    3    3  501    0 -0.64510795249E+02  0.35640179010E+02  0.18614317907E+03  0.20025792913E+03  0.47000000000E+01 0. -1.
        4    1    4    4  502    0 -0.25378113838E+02 -0.20736746916E+02  0.77145014432E+02  0.83817746250E+02  0.00000000000E+00 0. -1.
       -3    1    4    4    0  502  0.51562782413E+02 -0.52015187664E+02  0.23156569600E+03  0.24287233651E+03  0.00000000000E+00 0.  1.
       -5    1    5    5    0  504  0.50423439077E+02  0.43197735295E+02  0.21815020626E+02  0.70046789133E+02  0.47000000000E+01 0.  1.
       11    1    6    6    0    0 -0.13875870283E+02  0.35680640576E+02  0.12477372579E+03  0.13051486711E+03  0.00000000000E+00 0. -1.
      -12    1    6    6    0    0  0.17785578790E+01 -0.41766620301E+02  0.77351372262E+02  0.87925244557E+02  0.00000000000E+00 0.  1.
</event>
<event>
12   0  0.1523332E-01  0.3431790E+03  0.7957747E-01  0.1074176E+00
       21   -1    0    0  504  503  0.00000000000E+00  0.00000000000E+00  0.91465380574E+03  0.91465380574E+03  0.00000000000E+00 0.  1.
       21   -1    0    0  501  504  0.00000000000E+00  0.00000000000E+00 -0.24034170597E+03  0.24034170597E+03  0.00000000000E+00 0. -1.
        6    2    1    2  501    0  0.69801707640E+00 -0.29508716973E+03 -0.56717234474E+02  0.34783427692E+03  0.17519964197E+03 0.  0.
       24    2    3    3    0    0 -0.35356633311E+02 -0.29103796627E+03 -0.66284667990E+02  0.31001946967E+03  0.75929078967E+02 0.  0.
       -6    2    1    2    0  503 -0.69801707640E+00  0.29508716973E+03  0.73102933424E+03  0.80716123479E+03  0.17328717915E+03 0.  0.
      -24    2    5    5    0    0 -0.50829319099E+02  0.26681562585E+03  0.63249937329E+03  0.69295672156E+03  0.79745613478E+02 0.  0.
        5    1    3    3  501    0  0.36054650388E+02 -0.40492034580E+01  0.95674335158E+01  0.37814807249E+02  0.47000000000E+01 0. -1.
        2    1    4    4  502    0  0.12595612439E+02 -0.15312429258E+03 -0.11512870197E+02  0.15407220584E+03  0.00000000000E+00 0. -1.
       -1    1    4    4    0  502 -0.47952245750E+02 -0.13791367368E+03 -0.54771797793E+02  0.15594726383E+03  0.00000000000E+00 0.  1.
       -5    1    5    5    0  503  0.50131302023E+02  0.28271543873E+02  0.98529960958E+02  0.11420451323E+03  0.47000000000E+01 0.  1.
       11    1    6    6    0    0 -0.11731366133E+02  0.12609450710E+02  0.11246642426E+02  0.20569641815E+02  0.00000000000E+00 0. -1.
      -12    1    6    6    0    0 -0.39097952966E+02  0.25420617514E+03  0.62125273086E+03  0.67238707974E+03  0.00000000000E+00 0.  1.
</event>
<event>
12   0  0.1523332E-01  0.2042159E+03  0.7957747E-01  0.1152593E+00
       21   -1    0    0  504  503  0.00000000000E+00  0.00000000000E+00  0.96070989932E+02  0.96070989932E+02  0.00000000000E+00 0. -1.
       21   -1    0    0  501  504  0.00000000000E+00  0.00000000000E+00 -0.71233463918E+03  0.71233463918E+03  0.00000000000E+00 0.  1.
        6    2    1    2  501    0 -0.95870791082E+02 -0.23285603620E+02 -0.56997478928E+03  0.60545468938E+03  0.17880350265E+03 0.  0.
       24    2    3    3    0    0 -0.13787300081E+03 -0.10084170224E+02 -0.42645564739E+03  0.45526048991E+03  0.79290854707E+02 0.  0.
       -6    2    1    2    0  503  0.95870791082E+02  0.23285603620E+02 -0.46288859969E+02  0.20295093973E+03  0.17121038947E+03 0.  0.
      -24    2    5    5    0    0  0.11813472504E+03 -0.12290759902E+02 -0.62980501733E+02  0.15754101459E+03  0.82132524861E+02 0.  0.
        5    1    3    3  501    0  0.42002209728E+02 -0.13201433396E+02 -0.14351914189E+03  0.15019419947E+03  0.47000000000E+01 0. -1.
        2    1    4    4  502    0 -0.84520279633E+02  0.83488539238E+01 -0.35040161233E+03  0.36054773742E+03  0.00000000000E+00 0. -1.
       -1    1    4    4    0  502 -0.53352721177E+02 -0.18433024148E+02 -0.76054035060E+02  0.94712752495E+02  0.00000000000E+00 0.  1.
       -5    1    5    5    0  503 -0.22263933959E+02  0.35576363523E+02  0.16691641764E+02  0.45409925144E+02  0.47000000000E+01 0.  1.
       13    1    6    6    0    0  0.28467469759E+01  0.17958521794E+02  0.68159831994E+01  0.19418292931E+02  0.00000000000E+00 0. -1.
      -14    1    6    6    0    0  0.11528797807E+03 -0.30249281697E+02 -0.69796484932E+02  0.13812272166E+03  0.00000000000E+00 0.  1.
</event>
<event>
12   0  0.1523332E-01  0.1745902E+03  0.7957747E-01  0.1178572E+00
       21   -1    0    0  501  503  0.00000000000E+00  0.00000000000E+00  0.39421473436E+03  0.39421473436E+03  0.00000000000E+00 0. -1.
       21   -1    0    0  503  504  0.00000000000E+00  0.00000000000E+00 -0.79831120748E+02  0.79831120748E+02  0.00000000000E+00 0. -1.
        6    2    1    2  501    0 -0.10330323822E+02  0.14836778996E+02  0.11260605726E+03  0.20775432295E+03  0.17365163107E+03 0.  0.
       24    2    3    3    0    0 -0.49005660852E+02 -0.14180997540E+02  0.12562760277E+03  0.15746054901E+03  0.80055445975E+02 0.  0.
       -6    2    1    2    0  504  0.10330323822E+02 -0.14836778996E+02  0.20177755635E+03  0.26629153215E+03  0.17282983611E+03 0.  0.
      -24    2    5    5    0    0  0.16090451718E+02  0.39874078774E+02  0.19024216360E+03  0.20988574950E+03  0.77531298425E+02 0.  0.
        5    1    3    3  501    0  0.38675337030E+02  0.29017776536E+02 -0.13021545516E+02  0.50293773939E+02  0.47000000000E+01 0. -1.
      -13    1    4    4    0    0 -0.18011808589E+02  0.28016342073E+02  0.84674331043E+02  0.90989466475E+02  0.00000000000E+00 0.  1.
       14    1    4    4    0    0 -0.30993852262E+02 -0.42197339612E+02  0.40953271731E+02  0.66471082539E+02  0.00000000000E+00 0. -1.
       -5    1    5    5    0  504 -0.57601278958E+01 -0.54710857770E+02  0.11535392751E+02  0.56405782658E+02  0.47000000000E+01 0.  1.
        1    1    6    6  502    0  0.36523641303E+02  0.52999189713E+02  0.13917180288E+03  0.15333519231E+03  0.00000000000E+00 0. -1.
       -2    1    6    6    0  502 -0.20433189585E+02 -0.13125110939E+02  0.51070360722E+02  0.56550557186E+02  0.00000000000E+00 0.  1.
</event>
<event>
12   0  0.1523332E-01  0.3731382E+03  0.7957747E-01  0.1062520E+00
       21   -1    0    0  504  503  0.00000000000E+00  0.00000000000E+00  0.53879372158E+03  0.53879372158E+03  0.00000000000E+00 0. -1.
       21   -1    0    0  501  504  0.00000000000E+00  0.00000000000E+00 -0.36906664349E+03  0.36906664349E+03  0.00000000000E+00 0.  1.
        6    2    1    2  501    0  0.32338251651E+03  0.68646609834E+02 -0.16434972244E+03  0.40702167848E+03  0.17136862742E+03 0.  0.
       24    2    3    3    0    0  0.14664740888E+03  0.94612707414E+02 -0.77774651773E+02  0.20845967468E+03  0.83363736570E+02 0.  0.
       -6    2    1    2    0  503 -0.32338251651E+03 -0.68646609834E+02  0.33407680053E+03  0.50083868659E+03  0.17304182242E+03 0.  0.
      -24    2    5    5    0    0 -0.77634038684E+02 -0.55569190688E+02  0.10278326094E+03  0.16307823198E+03  0.83157273273E+02 0.  0.
        5    1    3    3  501    0  0.17673510764E+03 -0.25966097579E+02 -0.86575070664E+02  0.19856200380E+03  0.47000000000E+01 0. -1.
        4    1    4    4  502    0  0.18137864429E+02  0.45143358885E+02  0.31258389531E+01  0.48751162515E+02  0.00000000000E+00 0. -1.
       -3    1    4    4    0  502  0.12850954445E+03  0.49469348529E+02 -0.80900490726E+02  0.15970851216E+03  0.00000000000E+00 0.  1.
       -5    1    5    5    0  503 -0.24574847783E+03 -0.13077419146E+02  0.23129353959E+03  0.33776045461E+03  0.47000000000E+01 0.  1.
       13    1    6    6    0    0 -0.54978999340E+02 -0.31334800303E+02  0.11200515235E+03  0.12864569262E+03  0.00000000000E+00 0. -1.
      -14    1    6    6    0    0 -0.22655039345E+02 -0.24234390385E+02 -0.92218914061E+01  0.34432539351E+02  0.00000000000E+00 0.  1.
</event>
<event>
12   0  0.1523332E-01  0.1989731E+03  0.7957747E-01  0.1156824E+00
       21   -1    0    0  504  503  0.00000000000E+00  0.00000000000E+00  0.86407325768E+03  0.86407325768E+03  0.00000000000E+00 0.  1.
       21   -1    0    0  501  504  0.00000000000E+00  0.00000000000E+00 -0.79633480755E+02  0.79633480755E+02  0.00000000000E+00 0.  1.
        6    2    1    2  501    0 -0.97492970573E+02  0.15781456893E+02  0.84678162280E+02  0.21624218894E+03  0.17273204513E+03 0.  0.
       24    2    3    3    0    0 -0.79023102779E+02  0.64989062026E+02  0.18925424951E+02  0.13193301455E+03  0.81116703970E+02 0.  0.
       -6    2    1    2    0  503  0.97492970573E+02 -0.15781456893E+02  0.69976161464E+03  0.72746454950E+03  0.17258163215E+03 0.  0.
      -24    2    5    5    0    0  0.82543227699E+01  0.40799897938E+02  0.40623816854E+03  0.41546600881E+03  0.76483915864E+02 0.  0.
        5    1    3    3  501    0 -0.18469867794E+02 -0.49207605134E+02  0.65752737329E+02  0.84309174386E+02  0.47000000000E+01 0. -1.
        4    1    4    4  502    0 -0.61318310697E+02  0.29219986566E+02  0.47467120689E+02  0.82866581854E+02  0.00000000000E+00 0. -1.
       -3    1    4    4    0  502 -0.17704792081E+02  0.35769075461E+02 -0.28541695738E+02  0.49066432696E+02  0.00000000000E+00 0.  1.
       -5    1    5    5    0  503  0.89238647803E+02 -0.56581354831E+02  0.29352344611E+03  0.31199854069E+03  0.47000000000E+01 0.  1.
       13    1    6    6    0    0 -0.22811885328E+02 -0.94991683275E+01  0.74219624904E+02  0.78225117654E+02  0.00000000000E+00 0. -1.
      -14    1    6    6    0    0  0.31066208098E+02  0.50299066266E+02  0.33201854363E+03  0.33724089116E+03  0.00000000000E+00 0.  1.
</event>
<event>
12   0  0.1523332E-01  0.2137686E+03  0.7957747E-01  0.1145230E+00
        1   -1    0    0  502    0  0.00000000000E+00  0.00000000000E+00  0.31062865429E+03  0.31062865429E+03  0.00000000000E+00 0.  1.
       -1   -1    0    0    0  501  0.00000000000E+00  0.00000000000E+00 -0.16634109478E+03  0.16634109478E+03  0.00000000000E+00 0. -1.
        6    2    1    2  502    0 -0.96901026191E+02  0.77802224888E+02 -0.91876607308E+01  0.21312922747E+03  0.17290650485E+03 0.  0.
       24    2    3    3    0    0 -0.70107621979E+02 -0.20863895220E+02 -0.22849307756E+02  0.10987410476E+03  0.78739108766E+02 0.  0.
       -6    2    1    2    0  501  0.96901026191E+02 -0.77802224888E+02  0.15347522024E+03  0.26384052160E+03  0.17496909022E+03 0.  0.
      -24    2    5    5    0    0  0.70129987699E+02 -0.11899716990E+03  0.89432004743E+02  0.18298673104E+03  0.80046977740E+02 0.  0.
        5    1    3    3  502    0 -0.26793404212E+02  0.98666120108E+02  0.13661647025E+02  0.10325512271E+03  0.47000000000E+01 0. -1.
        2    1    4    4  503    0 -0.75408307659E+02  0.53654862198E+01 -0.31284638705E+02  0.81816440434E+02  0.00000000000E+00 0. -1.
       -1    1    4    4    0  503  0.53006856800E+01 -0.26229381440E+02  0.84353309485E+01  0.28057664329E+02  0.00000000000E+00 0.  1.
       -5    1    5    5    0  501  0.26771038492E+02  0.41194945008E+02  0.64043215501E+02  0.80853790560E+02  0.47000000000E+01 0.  1.
       11    1    6    6    0    0  0.27258028452E+02  0.22583662757E+01  0.19060290877E+01  0.27417754835E+02  0.00000000000E+00 0. -1.
      -12    1    6    6    0    0  0.42871959246E+02 -0.12125553617E+03  0.87525975655E+02  0.15556897620E+03  0.00000000000E+00 0.  1.
</event>
<event>
12   0  0.1523332E-01  0.1880865E+03  0.7957747E-01  0.1166086E+00
       21   -1    0    0  504  503  0.00000000000E+00  0.00000000000E+00  0.44914434323E+02  0.44914434323E+02  0.00000000000E+00 0. -1.
       21   -1    0    0  501  504  0.00000000000E+00  0.00000000000E+00 -0.79362626289E+03  0.79362626289E+03  0.00000000000E+00 0. -1.
        6    2    1    2  501    0 -0.51647986806E+02 -0.52984848707E+02 -0.41105848626E+03  0.45204602119E+03  0.17292084146E+03 0.  0.
       24    2    3    3    0    0 -0.90260447527E+02 -0.64847928371E+02 -0.36973670359E+03  0.39406986656E+03  0.78953325139E+02 0.  0.
       -6    2    1    2    0  503  0.51647986806E+02  0.52984848707E+02 -0.33765334230E+03  0.38649467602E+03  0.17289721308E+03 0.  0.
      -24    2    5    5    0    0  0.86489265887E+02  0.58869427766E+02 -0.17175639405E+03  0.21681135204E+03  0.80999387876E+02 0.  0.
        5    1    3    3  501    0  0.38612460722E+02  0.11863079664E+02 -0.41321782680E+02  0.57976154632E+02  0.47000000000E+01 0. -1.
        4    1    4    4  502    0 -0.95459632582E+02 -0.30915562678E+02 -0.24646864017E+03  0.26611107466E+03  0.00000000000E+00 0. -1.
       -3    1    4    4    0  502  0.51991850548E+01 -0.33932365693E+02 -0.12326806342E+03  0.12795879190E+03  0.00000000000E+00 0.  1.
       -5    1    5    5    0  503 -0.34841279081E+02 -0.58845790582E+01 -0.16589694825E+03  0.16968332398E+03  0.47000000000E+01 0.  1.
       13    1    6    6    0    0  0.10129903025E+02  0.19523718351E+02 -0.10699933762E+03  0.10923666402E+03  0.00000000000E+00 0. -1.
      -14    1    6    6    0    0  0.76359362862E+02  0.39345709414E+02 -0.64757056430E+02  0.10757468802E+03  0.00000000000E+00 0.  1.
</event>
<event>
12   0  0.1523332E-01  0.1867797E+03  0.7957747E-01  0.1167244E+00
       21   -1    0    0  504  503  0.00000000000E+00  0.00000000000E+00  0.66540913938E+03  0.66540913938E+03  0.00000000000E+00 0. -1.
       21   -1    0    0  501  504  0.00000000000E+00  0.00000000000E+00 -0.11553512976E+03  0.11553512976E+03  0.00000000000E+00 0. -1.
        6    2    1    2  501    0 -0.45222229468E+02 -0.41762330800E+02 -0.14563771359E+02  0.18734663734E+03  0.17634488020E+03 0.  0.
       24    2    3    3    0    0  0.60943137530E+01 -0.57635784836E+02 -0.59961480502E+02  0.11685978646E+03  0.81864560056E+02 0.  0.
       -6    2    1    2    0  503  0.45222229468E+02  0.41762330800E+02  0.56443778098E+03  0.59359763181E+03  0.17314444138E+03 0.  0.
      -24    2    5    5    0    0  0.47302799303E+02 -0.37618055894E+02  0.37052983067E+03  0.38400765649E+03  0.80727020706E+02 0.  0.
        5    1    3    3  501    0 -0.51316543221E+02  0.15873454036E+02  0.45397709143E+02  0.70486850878E+02  0.47000000000E+01 0. -1.
      -13    1    4    4    0    0  0.30289405349E+02 -0.55130861503E+02 -0.13381680837E+02  0.64311191471E+02  0.00000000000E+00 0.  1.
       14    1    4    4    0    0 -0.24195091596E+02 -0.25049233336E+01 -0.46579799664E+02  0.52548594986E+02  0.00000000000E+00 0. -1.
       -5    1    5    5    0  503 -0.20805698348E+01  0.79380386694E+02  0.19390795031E+03  0.20958997532E+03  0.47000000000E+01 0.  1.
        1    1    6    6  502    0  0.60214250379E+02 -0.10573621147E+01  0.18820799125E+03  0.19760850673E+03  0.00000000000E+00 0. -1.
       -2    1    6    6    0  502 -0.12911451076E+02 -0.36560693780E+02  0.18232183943E+03  0.18639914976E+03  0.00000000000E+00 0.  1.
</event>
<event>
12   0  0.1523332E-01  0.2632795E+03  0.7957747E-01  0.1112834E+00
       21   -1    0    0  501  503  0.00000000000E+00  0.00000000000E+00  0.17221632638E+03  0.17221632638E+03  0.00000000000E+00 0.  1.
       21   -1    0    0  503  504  0.00000000000E+00  0.00000000000E+00 -0.71468629598E+03  0.71468629598E+03  0.00000000000E+00 0. -1.
        6    2    1    2  501    0  0.18233843412E+02  0.19731049263E+03  0.22103464437E+02  0.26420569427E+03  0.17335565233E+03 0.  0.
       24    2    3    3    0    0 -0.50673589830E+02  0.79104835220E+02  0.30310751795E+02  0.12705518802E+03  0.79993071361E+02 0.  0.
       -6    2    1    2    0  504 -0.18233843412E+02 -0.19731049263E+03 -0.56457343404E+03  0.62269692809E+03  0.17246564378E+03 0.  0.
      -24    2    5    5    0    0  0.49301346194E+02 -0.15714916326E+03 -0.41843110616E+03  0.45670414449E+03  0.79797260215E+02 0.  0.
        5    1    3    3  501    0  0.68907433242E+02  0.11820565741E+03 -0.82072873579E+01  0.13715050625E+03  0.47000000000E+01 0. -1.
      -11    1    4    4    0    0 -0.21595548107E+02  0.10623849872E+02  0.45174989133E+02  0.51186067707E+02  0.00000000000E+00 0.  1.
       12    1    4    4    0    0 -0.29078041724E+02  0.68480985347E+02 -0.14864237339E+02  0.75869120308E+02  0.00000000000E+00 0. -1.
       -5    1    5    5    0  504 -0.67535189606E+02 -0.40161329371E+02 -0.14614232788E+03  0.16599278361E+03  0.47000000000E+01 0.  1.
        1    1    6    6  502    0 -0.45098995464E+01 -0.56506402126E+02 -0.70087797916E+02  0.90142177097E+02  0.00000000000E+00 0. -1.
       -2    1    6    6    0  502  0.53811245740E+02 -0.10064276113E+03 -0.34834330825E+03  0.36656196739E+03  0.00000000000E+00 0.  1.
</event>
<event>
12   0  0.1523332E-01  0.2095893E+03  0.7957747E-01  0.1148398E+00
       21   -1    0    0  504  503  0.00000000000E+00  0.00000000000E+00  0.10868142680E+03  0.10868142680E+03  0.00000000000E+00 0.  1.
       21   -1    0    0  501  504  0.00000000000E+00  0.00000000000E+00 -0.80485359553E+03  0.80485359553E+03  0.00000000000E+00 0.  1.
        6    2    1    2  501    0 -0.11919552707E+03  0.14771634340E+01 -0.67094417427E+03  0.70291803299E+03  0.17238886399E+03 0.  0.
       24    2    3    3    0    0 -0.71462032174E+02  0.67055854907E+02 -0.47269883761E+03  0.48866968453E+03  0.75832445429E+02 0.  0.
       -6    2    1    2    0  503  0.11919552707E+03 -0.14771634340E+01 -0.25227994450E+02  0.21061698934E+03  0.17179437944E+03 0.  0.
      -24    2    5    5    0    0  0.19196434016E+01  0.18032471562E+01  0.25216793643E+02  0.82823559812E+02  0.78847439066E+02 0.  0.
        5    1    3    3  501    0 -0.47733494895E+02 -0.65578691473E+02 -0.19824533666E+03  0.21424834846E+03  0.47000000000E+01 0. -1.
        4    1    4    4  502    0 -0.12124628400E+02  0.49395742032E+02 -0.31801532512E+03  0.32205697160E+03  0.00000000000E+00 0. -1.
       -3    1    4    4    0  502 -0.59337403774E+02  0.17660112875E+02 -0.15468351249E+03  0.16661271293E+03  0.00000000000E+00 0.  1.
       -5    1    5    5    0  503  0.11727588367E+03 -0.32804105901E+01 -0.50444788094E+02  0.12779342952E+03  0.47000000000E+01 0.  1.
       13    1    6    6    0    0  0.14493956770E+02  0.36935533822E+02  0.39492913858E+01  0.39873617143E+02  0.00000000000E+00 0. -1.
      -14    1    6    6    0    0 -0.12574313369E+02 -0.35132286666E+02  0.21267502258E+02  0.42949942670E+02  0.00000000000E+00 0.  1.
</event>
<event>
12   0  0.1523332E-01  0.2441641E+03  0.7957747E-01  0.1124342E+00
       21   -1    0    0  504  503  0.00000000000E+00  0.00000000000E+00  0.23417090175E+03  0.23417090175E+03  0.00000000000E+00 0.  1.
       21   -1    0    0  501  504  0.00000000000E+00  0.00000000000E+00 -0.30413775257E+03  0.30413775257E+03  0.00000000000E+00 0.  1.
        6    2    1    2  501    0  0.15313909056E+03  0.72024861505E+02 -0.14731515124E+03  0.28516288909E+03  0.17600272099E+03 0.  0.
       24    2    3    3    0    0  0.36847030258E+02  0.76964826511E+02 -0.33524346472E+02  0.12231730642E+03  0.80971312732E+02 0.  0.
       -6    2    1    2    0  503 -0.15313909056E+03 -0.72024861505E+02  0.77348300422E+02  0.25314576523E+03  0.17164165329E+03 0.  0.
      -24    2    5    5    0    0 -0.11482139189E+03 -0.25568670746E+02  0.11407681226E+03  0.18245278628E+03  0.80235847144E+02 0.  0.
        5    1    3    3  501    0  0.11629206030E+03 -0.49399650065E+01 -0.11379080477E+03  0.16284558266E+03  0.47000000000E+01 0. -1.
      -13    1    4    4    0    0 -0.10501550150E+02  0.45145121399E+02 -0.44465473610E+02  0.64230389109E+02  0.00000000000E+00 0.  1.
       14    1    4    4    0    0  0.47348580407E+02  0.31819705112E+02  0.10941127138E+02  0.58086917314E+02  0.00000000000E+00 0. -1.
       -5    1    5    5    0  503 -0.38317698667E+02 -0.46456190759E+02 -0.36728511839E+02  0.70692978950E+02  0.47000000000E+01 0.  1.
        3    1    6    6  502    0 -0.98847364230E+02  0.12970819400E+02  0.70351154928E+02  0.12201773876E+03  0.00000000000E+00 0. -1.
       -4    1    6    6    0  502 -0.15974027661E+02 -0.38539490146E+02  0.43725657333E+02  0.60435047527E+02  0.00000000000E+00 0.  1.
</event>
<event>
12   0  0.1523332E-01  0.3147312E+03  0.7957747E-01  0.1086499E+00
       21   -1    0    0  504  503  0.00000000000E+00  0.00000000000E+00  0.37497910946E+03  0.37497910946E+03  0.00000000000E+00 0. -1.
       21   -1    0    0  501  504  0.00000000000E+00  0.00000000000E+00 -0.28186047563E+03  0.28186047563E+03  0.00000000000E+00 0.  1.
        6    2    1    2  501    0 -0.23782908289E+03 -0.11135647098E+03 -0.36077962558E+02  0.31679228178E+03  0.17347274748E+03 0.  0.
       24    2    3    3    0    0 -0.18414099611E+03 -0.80382069058E+02 -0.90642111263E+02  0.23408097324E+03  0.78795470851E+02 0.  0.
       -6    2    1    2    0  503  0.23782908289E+03  0.11135647098E+03  0.12919659638E+03  0.34004730330E+03  0.17314003486E+03 0.  0.
      -24    2    5    5    0    0  0.20771948889E+03  0.14687326307E+03  0.12540429086E+03  0.29309518139E+03  0.73887804936E+02 0.  0.
        5    1    3    3  501    0 -0.53688086780E+02 -0.30974401922E+02  0.54564148705E+02  0.82711308540E+02  0.47000000000E+01 0. -1.
      -13    1    4    4    0    0 -0.56881386161E+02 -0.17461661948E+02 -0.67940965340E+02  0.90312659694E+02  0.00000000000E+00 0.  1.
       14    1    4    4    0    0 -0.12725960995E+03 -0.62920407110E+02 -0.22701145923E+02  0.14376831355E+03  0.00000000000E+00 0. -1.
       -5    1    5    5    0  503  0.30109593997E+02 -0.35516792092E+02  0.37923055259E+01  0.46952121915E+02  0.47000000000E+01 0.  1.
        3    1    6    6  502    0  0.60859844604E+02  0.29218642563E+02  0.69265874479E+02  0.96723374248E+02  0.00000000000E+00 0. -1.
       -4    1    6    6    0  502  0.14685964429E+03  0.11765462051E+03  0.56138416379E+02  0.19637180714E+03  0.00000000000E+00 0.  1.
</event>
<event>
12   0  0.1523332E-01  0.4328944E+03  0.7957747E-01  0.1042445E+00
       21   -1    0    0  501  503  0.00000000000E+00  0.00000000000E+00  0.45669034348E+03  0.45669034348E+03  0.00000000000E+00 0. -1.
       21   -1    0    0  503  504  0.00000000000E+00  0.00000000000E+00 -0.46934180439E+03  0.46934180439E+03  0.00000000000E+00 0.  1.
        6    2    1    2  501    0 -0.19238770771E+03  0.34729389876E+03  0.15907036634E+03  0.46032196350E+03  0.17019649362E+03 0.  0.
       24    2    3    3    0    0 -0.44876209714E+02  0.64799397886E+02  0.32925149352E+02  0.11754289350E+03  0.80742988471E+02 0.  0.
       -6    2    1    2    0  504  0.19238770771E+03 -0.34729389876E+03 -0.17172182725E+03  0.46571018437E+03  0.17254421948E+03 0.  0.
      -24    2    5    5    0    0  0.21720895406E+03 -0.30346423370E+03 -0.15825838925E+03  0.41336051414E+03  0.80937791092E+02 0.  0.
        5    1    3    3  501    0 -0.14751149799E+03  0.28249450088E+03  0.12614521698E+03  0.34277907001E+03  0.47000000000E+01 0. -1.
        2    1    4    4  502    0  0.19831807841E+02  0.21606957321E+02  0.26417359477E+02  0.39471991192E+02  0.00000000000E+00 0. -1.
       -1    1    4    4    0  502 -0.64708017554E+02  0.43192440565E+02  0.65077898750E+01  0.78070902306E+02  0.00000000000E+00 0.  1.
       -5    1    5    5    0  504 -0.24821246350E+02 -0.43829665060E+02 -0.13463438009E+02  0.52349670225E+02  0.47000000000E+01 0.  1.
       11    1    6    6    0    0  0.53784384011E+02 -0.83917498976E+02 -0.52769723464E+01  0.99813591434E+02  0.00000000000E+00 0. -1.
      -12    1    6    6    0    0  0.16342457005E+03 -0.21954673473E+03 -0.15298141690E+03  0.31354692271E+03  0.00000000000E+00 0.  1.
</event>
<event>
12   0  0.1523332E-01  0.2052510E+03  0.7957747E-01  0.1151774E+00
       -1   -1    0    0    0  501  0.00000000000E+00  0.00000000000E+00  0.48907360975E+02  0.48907360975E+02  0.00000000000E+00 0. -1.
        1   -1    0    0  502    0  0.00000000000E+00  0.00000000000E+00 -0.92408279458E+03  0.92408279458E+03  0.00000000000E+00 0.  1.
        6    2    1    2  502    0 -0.11262643154E+03 -0.60259180014E+00 -0.31088736150E+03  0.37253676883E+03  0.17160307804E+03 0.  0.
       24    2    3    3    0    0  0.56508516374E-01 -0.39399322534E+01 -0.20582970179E+03  0.21836872841E+03  0.72825195859E+02 0.  0.
       -6    2    1    2    0  501  0.11262643154E+03  0.60259180014E+00 -0.56428807210E+03  0.60045338672E+03  0.17157553762E+03 0.  0.
      -24    2    5    5    0    0  0.11075179829E+03 -0.49381109312E+02 -0.46630609894E+03  0.49034234417E+03  0.91048238853E+02 0.  0.
        5    1    3    3  502    0 -0.11268294006E+03  0.33373404533E+01 -0.10505765971E+03  0.15416804042E+03  0.47000000000E+01 0. -1.
        4    1    4    4  503    0 -0.31943888007E+02  0.56572699716E+01 -0.54751596637E+02  0.63640820381E+02  0.00000000000E+00 0. -1.
       -3    1    4    4    0  503  0.32000396524E+02 -0.95972022250E+01 -0.15107810515E+03  0.15472790803E+03  0.00000000000E+00 0.  1.
       -5    1    5    5    0  501  0.18746332549E+01  0.49983701112E+02 -0.97981973162E+02  0.11011104255E+03  0.47000000000E+01 0.  1.
       13    1    6    6    0    0  0.10663736227E+02  0.21351124619E+02 -0.38235117751E+02  0.45072275539E+02  0.00000000000E+00 0. -1.
      -14    1    6    6    0    0  0.10008806206E+03 -0.70732233932E+02 -0.42807098119E+03  0.44527006863E+03  0.00000000000E+00 0.  1.
</event>
<event>
12   0  0.1523332E-01  0.2263688E+03  0.7957747E-01  0.1136137E+00
       21   -1    0    0  504  503  0.00000000000E+00  0.00000000000E+00  0.33473358194E+03  0.33473358194E+03  0.00000000000E+00 0. -1.
       21   -1    0    0  501  504  0.00000000000E+00  0.00000000000E+00 -0.15276121058E+03  0.15276121058E+03  0.00000000000E+00 0. -1.
        6    2    1    2  501    0  0.12570154422E+03 -0.76664320391E+02  0.12671442637E+03  0.25447919640E+03  0.16439227266E+03 0.  0.
       24    2    3    3    0    0  0.98620182244E+01 -0.47711689819E+02  0.19067671494E+02  0.93647096259E+02  0.77669413495E+02 0.  0.
       -6    2    1    2    0  503 -0.12570154422E+03  0.76664320391E+02  0.55257944984E+02  0.23301559612E+03  0.17194339566E+03 0.  0.
      -24    2    5    5    0    0 -0.78578584505E+02  0.67051197399E+02 -0.30730450206E+02  0.13437949941E+03  0.80268501154E+02 0.  0.
        5    1    3    3  501    0  0.11583952600E+03 -0.28952630572E+02  0.10764675488E+03  0.16083210014E+03  0.47000000000E+01 0. -1.
      -11    1    4    4    0    0  0.19813264464E+02 -0.50003067630E+02 -0.16804734896E+02  0.56349546015E+02  0.00000000000E+00 0.  1.
       12    1    4    4    0    0 -0.99512462397E+01  0.22913778113E+01  0.35872406390E+02  0.37297550244E+02  0.00000000000E+00 0. -1.
       -5    1    5    5    0  503 -0.47122959714E+02  0.96131229922E+01  0.85988395190E+02  0.98636096705E+02  0.47000000000E+01 0.  1.
        3    1    6    6  502    0 -0.34562571107E+02 -0.37550159705E+01  0.16582198395E+02  0.38518057714E+02  0.00000000000E+00 0. -1.
       -4    1    6    6    0  502 -0.44016013398E+02  0.70806213369E+02 -0.47312648601E+02  0.95861441700E+02  0.00000000000E+00 0.  1.
</event>
<event>
12   0  0.1523332E-01  0.1878607E+03  0.7957747E-01  0.1166285E+00
       21   -1    0    0  501  503  0.00000000000E+00  0.00000000000E+00  0.20400124483E+03  0.20400124483E+03  0.00000000000E+00 0.  1.
       21   -1    0    0  503  504  0.00000000000E+00  0.00000000000E+00 -0.22101485660E+03  0.22101485660E+03  0.00000000000E+00 0.  1.
        6    2    1    2  501    0  0.71212510023E+02 -0.15732907429E+02  0.92357146038E+02  0.20763718714E+03  0.17106903022E+03 0.  0.
       24    2    3    3    0    0  0.11698832104E+02  0.47642702128E+02  0.72579054177E+02  0.11835332150E+03  0.79580775732E+02 0.  0.
       -6    2    1    2    0  504 -0.71212510023E+02  0.15732907429E+02 -0.10937075781E+03  0.21737891429E+03  0.17312678520E+03 0.  0.
      -24    2    5    5    0    0 -0.86319111296E+02  0.58345999938E+02 -0.45815597327E+02  0.13924164099E+03  0.80211725716E+02 0.  0.
        5    1    3    3  501    0  0.59513677919E+02 -0.63375609557E+02  0.19778091861E+02  0.89283865641E+02  0.47000000000E+01 0. -1.
      -13    1    4    4    0    0  0.44387864672E+02  0.34546045507E+02  0.32340854117E+02  0.64881758880E+02  0.00000000000E+00 0.  1.
       14    1    4    4    0    0 -0.32689032568E+02  0.13096656621E+02  0.40238200060E+02  0.53471562619E+02  0.00000000000E+00 0. -1.
       -5    1    5    5    0  504  0.15106601272E+02 -0.42613092510E+02 -0.63555160484E+02  0.78137273304E+02  0.47000000000E+01 0.  1.
        1    1    6    6  502    0 -0.49512499378E+02  0.50952338229E+02  0.10234972230E+02  0.71780101854E+02  0.00000000000E+00 0. -1.
       -2    1    6    6    0  502 -0.36806611917E+02  0.73936617094E+01 -0.56050569557E+02  0.67461539132E+02  0.00000000000E+00 0.  1.
</event>
<event>
12   0  0.1523332E-01  0.1763667E+03  0.7957747E-01  0.1176859E+00
        2   -1    0    0  502    0  0.00000000000E+00  0.00000000000E+00  0.64221518241E+03  0.64221518241E+03  0.00000000000E+00 0.  1.
       -2   -1    0    0    0  501  0.00000000000E+00  0.00000000000E+00 -0.57945959327E+02  0.57945959327E+02  0.00000000000E+00 0. -1.
        6    2    1    2  502    0  0.15621555823E+02  0.31469527499E+02  0.43386830260E+03  0.46831721567E+03  0.17275689952E+03 0.  0.
       24    2    3    3    0    0  0.65472146333E+02 -0.22672250935E+02  0.27915183306E+03  0.29692383922E+03  0.73738643117E+02 0.  0.
       -6    2    1    2    0  501 -0.15621555823E+02 -0.31469527499E+02  0.15040092048E+03  0.23184392606E+03  0.17290692583E+03 0.  0.
      -24    2    5    5    0    0 -0.37595005415E+02 -0.26593036322E+02  0.17724632775E+02  0.97189925105E+02  0.83732579812E+02 0.  0.
        5    1    3    3  502    0 -0.49850590510E+02  0.54141778434E+02  0.15471646954E+03  0.17139337646E+03  0.47000000000E+01 0. -1.
        4    1    4    4  503    0 -0.91757361253E+01 -0.22974277473E+02  0.96173209160E+02  0.99304066982E+02  0.00000000000E+00 0. -1.
       -3    1    4    4    0  503  0.74647882458E+02  0.30202653791E+00  0.18297862390E+03  0.19761977224E+03  0.00000000000E+00 0.  1.
       -5    1    5    5    0  501  0.21973449592E+02 -0.48764911767E+01  0.13267628771E+03  0.13465400096E+03  0.47000000000E+01 0.  1.
       13    1    6    6    0    0  0.26294845757E+02 -0.70295751905E+01 -0.26180968686E+01  0.27343889115E+02  0.00000000000E+00 0. -1.
      -14    1    6    6    0    0 -0.63889851171E+02 -0.19563461132E+02  0.20342729644E+02  0.69846035990E+02  0.00000000000E+00 0.  1.
</event>
<event>
12   0  0.1523332E-01  0.3514139E+03  0.7957747E-01  0.1070848E+00
       21   -1    0    0  504  503  0.00000000000E+00  0.00000000000E+00  0.17042234560E+03  0.17042234560E+03  0.00000000000E+00 0.  1.
       21   -1    0    0  501  504  0.00000000000E+00  0.00000000000E+00 -0.72816041859E+03  0.72816041859E+03  0.00000000000E+00 0. -1.
        6    2    1    2  501    0 -0.21429696615E+03 -0.21685965414E+03 -0.23957326928E+03  0.42530820448E+03  0.17475817048E+03 0.  0.
       24    2    3    3    0    0 -0.12592295762E+03 -0.11730904417E+03 -0.56170645762E+02  0.19863905872E+03  0.81757758664E+02 0.  0.
       -6    2    1    2    0  503  0.21429696615E+03  0.21685965414E+03 -0.31816480370E+03  0.47327455971E+03  0.17265186723E+03 0.  0.
      -24    2    5    5    0    0  0.15537016129E+03  0.65445507317E+02 -0.14122619332E+03  0.23300809506E+03  0.76973587923E+02 0.  0.
        5    1    3    3  501    0 -0.88374008533E+02 -0.99550609969E+02 -0.18340262352E+03  0.22666914577E+03  0.47000000000E+01 0. -1.
      -13    1    4    4    0    0 -0.18026769190E+02 -0.62774022828E+02  0.49264868057E-01  0.65311138227E+02  0.00000000000E+00 0.  1.
       14    1    4    4    0    0 -0.10789618843E+03 -0.54535021346E+02 -0.56219910630E+02  0.13332792049E+03  0.00000000000E+00 0. -1.
       -5    1    5    5    0  503  0.58926804862E+02  0.15141414683E+03 -0.17693861038E+03  0.24026646465E+03  0.47000000000E+01 0.  1.
        1    1    6    6  502    0  0.10811090554E+03  0.16454713635E+02 -0.11849117616E+03  0.16124169537E+03  0.00000000000E+00 0. -1.
       -2    1    6    6    0  502  0.47259255744E+02  0.48990793682E+02 -0.22735017158E+02  0.71766399689E+02  0.00000000000E+00 0.  1.
</event>
<event>
12   0  0.1523332E-01  0.1925645E+03  0.7957747E-01  0.1162195E+00
        2   -1    0    0  502    0  0.00000000000E+00  0.00000000000E+00  0.79063572193E+03  0.79063572193E+03  0.00000000000E+00 0. -1.
       -2   -1    0    0    0  501  0.00000000000E+00  0.00000000000E+00 -0.49001178955E+02  0.49001178955E+02  0.00000000000E+00 0.  1.
        6    2    1    2  502    0  0.28933597684E+02  0.81541641016E+02  0.28543268714E+03  0.34477912208E+03  0.17295846855E+03 0.  0.
       24    2    3    3    0    0  0.76081776545E+02  0.25564555615E+02  0.12714752848E+03  0.17032951242E+03  0.80022906573E+02 0.  0.
       -6    2    1    2    0  501 -0.28933597684E+02 -0.81541641016E+02  0.45620185584E+03  0.49485777881E+03  0.17110784809E+03 0.  0.
      -24    2    5    5    0    0 -0.73887533432E+02 -0.94718954269E+02  0.35750741486E+03  0.38550888487E+03  0.79840470584E+02 0.  0.
        5    1    3    3  502    0 -0.47148178861E+02  0.55977085401E+02  0.15828515865E+03  0.17444960966E+03  0.47000000000E+01 0. -1.
      -13    1    4    4    0    0  0.41169554933E+01  0.39617588479E+02  0.49446730864E+02  0.63493951150E+02  0.00000000000E+00 0.  1.
       14    1    4    4    0    0  0.71964821052E+02 -0.14053032864E+02  0.77700797618E+02  0.10683556127E+03  0.00000000000E+00 0. -1.
       -5    1    5    5    0  501  0.44953935748E+02  0.13177313253E+02  0.98694440983E+02  0.10934889393E+03  0.47000000000E+01 0.  1.
        1    1    6    6  503    0 -0.53128171634E+01 -0.40262087724E+02  0.21062586251E+03  0.21450528127E+03  0.00000000000E+00 0. -1.
       -2    1    6    6    0  503 -0.68574716268E+02 -0.54456866546E+02  0.14688155234E+03  0.17100360360E+03  0.00000000000E+00 0.  1.
</event>
<event>
12   0  0.1523332E-01  0.2379246E+03  0.7957747E-01  0.1128349E+00
       -2   -1    0    0    0  501  0.00000000000E+00  0.00000000000E+00  0.26903620626E+03  0.26903620626E+03  0.00000000000E+00 0.  1.
        2   -1    0    0  502    0  0.00000000000E+00  0.00000000000E+00 -0.23472672493E+03  0.23472672493E+03  0.00000000000E+00 0. -1.
        6    2    1    2  502    0  0.91769935835E+00  0.16349272648E+03 -0.63894272633E+02  0.24665824331E+03  0.17328328578E+03 0.  0.
       24    2    3    3    0    0 -0.30390686894E+02  0.14145847547E+03  0.72276566694E+01  0.16575001075E+03  0.80540256457E+02 0.  0.
       -6    2    1    2    0  501 -0.91769935835E+00 -0.16349272648E+03  0.98203753966E+02  0.25710468788E+03  0.17241847190E+03 0.  0.
      -24    2    5    5    0    0  0.44472238826E+02 -0.71914432405E+02  0.99551444649E+02  0.15477807011E+03  0.83043935607E+02 0.  0.
        5    1    3    3  502    0  0.31308386253E+02  0.22034251006E+02 -0.71121929303E+02  0.80908232553E+02  0.47000000000E+01 0. -1.
        4    1    4    4  503    0 -0.43232691480E+02  0.29056505175E+02 -0.28580645914E+01  0.52168138157E+02  0.00000000000E+00 0. -1.
       -3    1    4    4    0  503  0.12842004586E+02  0.11240197030E+03  0.10085721261E+02  0.11358187259E+03  0.00000000000E+00 0.  1.
       -5    1    5    5    0  501 -0.45389938185E+02 -0.91578294075E+02 -0.13476906834E+01  0.10232661777E+03  0.47000000000E+01 0.  1.
       13    1    6    6    0    0  0.58617812555E+02 -0.28002219578E+02  0.30582365315E+02  0.71801485488E+02  0.00000000000E+00 0. -1.
      -14    1    6    6    0    0 -0.14145573729E+02 -0.43912212827E+02  0.68969079335E+02  0.82976584623E+02  0.00000000000E+00 0.  1.
</event>
<event>
12   0  0.1523332E-01  0.2472319E+03  0.7957747E-01  0.1122419E+00
       21   -1    0    0  504  503  0.00000000000E+00  0.00000000000E+00  0.34704691085E+03  0.34704691085E+03  0.00000000000E+00 0.  1.
       21   -1    0    0  501  504  0.00000000000E+00  0.00000000000E+00 -0.22815887782E+03  0.22815887782E+03  0.00000000000E+00 0.  1.
        6    2    1    2  501    0  0.88103695614E+02  0.13197982861E+03 -0.86207339939E+02  0.26183069424E+03  0.18958552331E+03 0.  0.
       24    2    3    3    0    0  0.31351533873E+02  0.11823201369E+03  0.15690097150E+02  0.14429351731E+03  0.74918036881E+02 0.  0.
       -6    2    1    2    0  503 -0.88103695614E+02 -0.13197982861E+03  0.20509537297E+03  0.31337509444E+03  0.17595141790E+03 0.  0.
      -24    2    5    5    0    0  0.19272867753E+02 -0.83116324818E+02  0.10282145818E+03  0.15717198304E+03  0.82770846971E+02 0.  0.
        5    1    3    3  501    0  0.56752161741E+02  0.13747814917E+02 -0.10189743709E+03  0.11753717694E+03  0.47000000000E+01 0. -1.
      -13    1    4    4    0    0 -0.15259164353E+02  0.33984689735E+02 -0.19168892186E+02  0.41895675920E+02  0.00000000000E+00 0.  1.
       14    1    4    4    0    0  0.46610698226E+02  0.84247323957E+02  0.34858989336E+02  0.10239784139E+03  0.00000000000E+00 0. -1.
       -5    1    5    5    0  503 -0.10737656337E+03 -0.48863503791E+02  0.10227391479E+03  0.15620311139E+03  0.47000000000E+01 0.  1.
        3    1    6    6  502    0 -0.13589459919E+02 -0.66335783018E+02  0.27093193616E+02  0.72932507634E+02  0.00000000000E+00 0. -1.
       -4    1    6    6    0  502  0.32862327671E+02 -0.16780541800E+02  0.75728264564E+02  0.84239475408E+02  0.00000000000E+00 0.  1.
</event>
<event>
12   0  0.1523332E-01  0.1723838E+03  0.7957747E-01  0.1180732E+00
       21   -1    0    0  504  503  0.00000000000E+00  0.00000000000E+00  0.16384881519E+03  0.16384881519E+03  0.00000000000E+00 0. -1.
       21   -1    0    0  501  504  0.00000000000E+00  0.00000000000E+00 -0.29741918754E+03  0.29741918754E+03  0.00000000000E+00 0. -1.
        6    2    1    2  501    0  0.52444782342E+01  0.46022750553E+01 -0.21133337571E+03  0.27215628308E+03  0.17134340152E+03 0.  0.
       24    2    3    3    0    0 -0.12515727903E+02 -0.40059846543E+02 -0.20624391879E+03  0.22359577856E+03  0.75479026218E+02 0.  0.
       -6    2    1    2    0  503 -0.52444782342E+01 -0.46022750553E+01  0.77763003353E+02  0.18911171965E+03  0.17224248120E+03 0.  0.
      -24    2    5    5    0    0 -0.41449101330E+02 -0.13274788813E+02 -0.12857587674E+02  0.91029260734E+02  0.78909826574E+02 0.  0.
        5    1    3    3  501    0  0.17760206137E+02  0.44662121599E+02 -0.50894569121E+01  0.48560504521E+02  0.47000000000E+01 0. -1.
        4    1    4    4  502    0  0.31651371907E+02 -0.17655245524E+02 -0.10032189612E+03  0.10666770776E+03  0.00000000000E+00 0. -1.
       -3    1    4    4    0  502 -0.44167099810E+02 -0.22404601019E+02 -0.10592202268E+03  0.11692807080E+03  0.00000000000E+00 0.  1.
       -5    1    5    5    0  503  0.36204623096E+02  0.86725137581E+01  0.90620591026E+02  0.98082458912E+02  0.47000000000E+01 0.  1.
       13    1    6    6    0    0 -0.44848248075E+02  0.20015520528E+02 -0.25401361129E+02  0.55292093147E+02  0.00000000000E+00 0. -1.
      -14    1    6    6    0    0  0.33991467449E+01 -0.33290309342E+02  0.12543773455E+02  0.35737167587E+02  0.00000000000E+00 0.  1.
</event>
<event>
12   0  0.1523332E-01  0.1814740E+03  0.7957747E-01  0.1172054E+00
        2   -1    0    0  502    0  0.00000000000E+00  0.00000000000E+00  0.24709823456E+03  0.24709823456E+03  0.00000000000E+00 0.  1.
       -2   -1    0    0    0  501  0.00000000000E+00  0.00000000000E+00 -0.13672819289E+03  0.13672819289E+03  0.00000000000E+00 0. -1.
        6    2    1    2  502    0 -0.47910677737E+02 -0.28036392377E+02  0.85728622515E+02  0.20088546440E+03  0.17298583974E+03 0.  0.
       24    2    3    3    0    0 -0.10890269526E+02 -0.46239744164E+01  0.12710168153E+03  0.14044977999E+03  0.58577505432E+02 0.  0.
       -6    2    1    2    0  501  0.47910677737E+02  0.28036392377E+02  0.24641419155E+02  0.18294096304E+03  0.17256512997E+03 0.  0.
      -24    2    5    5    0    0  0.80148126377E+02  0.56914509134E+02 -0.28659393988E+01  0.13144393889E+03  0.87214172872E+02 0.  0.
        5    1    3    3  502    0 -0.37020408210E+02 -0.23412417960E+02 -0.41373059010E+02  0.60435684415E+02  0.47000000000E+01 0. -1.
        4    1    4    4  503    0 -0.28605295073E+02 -0.20142475150E+02  0.89340513901E+02  0.95946389383E+02  0.00000000000E+00 0. -1.
       -3    1    4    4    0  503  0.17715025547E+02  0.15518500733E+02  0.37761167624E+02  0.44503390606E+02  0.00000000000E+00 0.  1.
       -5    1    5    5    0  501 -0.32237448640E+02 -0.28878116757E+02  0.27507358554E+02  0.51497024156E+02  0.47000000000E+01 0.  1.
       11    1    6    6    0    0  0.76742518798E+02  0.31828740188E+02  0.31420418849E+02  0.88824127432E+02  0.00000000000E+00 0. -1.
      -12    1    6    6    0    0  0.34056075793E+01  0.25085768946E+02 -0.34286358248E+02  0.42619811455E+02  0.00000000000E+00 0.  1.
</event>
<event>
12   0  0.1523332E-01  0.2327976E+03  0.7957747E-01  0.1131744E+00
       -2   -1    0    0    0  501  0.00000000000E+00  0.00000000000E+00  0.45553398873E+02  0.45553398873E+02  0.00000000000E+00 0. -1.
        2   -1    0    0  502    0  0.00000000000E+00  0.00000000000E+00 -0.13830512370E+04  0.13830512370E+04  0.00000000000E+00 0.  1.
        6    2    1    2  502    0 -0.13336606226E+03 -0.81353185600E+02 -0.40429983797E+03  0.46706238282E+03  0.17402316828E+03 0.  0.
       24    2    3    3    0    0 -0.73053904800E+02 -0.96970685191E+02 -0.36593129451E+03  0.39374323281E+03  0.79923928179E+02 0.  0.
       -6    2    1    2    0  501  0.13336606226E+03  0.81353185600E+02 -0.93319800012E+03  0.96154225302E+03  0.17117286448E+03 0.  0.
      -24    2    5    5    0    0  0.95615426092E+02 -0.99690818829E+01 -0.36471751222E+03  0.38451797087E+03  0.74789798076E+02 0.  0.
        5    1    3    3  502    0 -0.60312157456E+02  0.15617499591E+02 -0.38368543466E+02  0.73319150010E+02  0.47000000000E+01 0.  1.
      -11    1    4    4    0    0 -0.64073446015E+02 -0.82499051021E+02 -0.36129402246E+03  0.37609157206E+03  0.00000000000E+00 0.  1.
       12    1    4    4    0    0 -0.89804587849E+01 -0.14471634170E+02 -0.46372720420E+01  0.17651660758E+02  0.00000000000E+00 0. -1.
       -5    1    5    5    0  501  0.37750636164E+02  0.91322267483E+02 -0.56848048790E+03  0.57702428215E+03  0.47000000000E+01 0.  1.
        1    1    6    6  503    0  0.75111097584E+02 -0.34494820930E+02 -0.31290351286E+03  0.32363587257E+03  0.00000000000E+00 0. -1.
       -2    1    6    6    0  503  0.20504328508E+02  0.24525739047E+02 -0.51813999360E+02  0.60882098297E+02  0.00000000000E+00 0.  1.
</event>
<event>
12   0  0.1523332E-01  0.1900683E+03  0.7957747E-01  0.1164349E+00
       21   -1    0    0  501  503  0.00000000000E+00  0.00000000000E+00  0.10072218970E+03  0.10072218970E+03  0.00000000000E+00 0. -1.
       21   -1    0    0  503  504  0.00000000000E+00  0.00000000000E+00 -0.35918585644E+03  0.35918585644E+03  0.00000000000E+00 0. -1.
        6    2    1    2  501    0 -0.50368747291E+01 -0.75101721931E+02 -0.11956108511E+03  0.22449373120E+03  0.17446186842E+03 0.  0.
       24    2    3    3    0    0  0.55324434697E+02 -0.27471120755E+02 -0.29877588133E+02  0.10626775489E+03  0.81146225464E+02 0.  0.
       -6    2    1    2    0  504  0.50368747291E+01  0.75101721931E+02 -0.13890258164E+03  0.23541431494E+03  0.17452889087E+03 0.  0.
      -24    2    5    5    0    0  0.56189489324E+02  0.93461201292E+02 -0.10086522111E+03  0.16891174914E+03  0.80406040253E+02 0.  0.
        5    1    3    3  501    0 -0.60361309426E+02 -0.47630601176E+02 -0.89683496975E+02  0.11822597631E+03  0.47000000000E+01 0. -1.
      -13    1    4    4    0    0  0.31896945321E+02  0.70008010271E+01 -0.50208469541E+02  0.59894212989E+02  0.00000000000E+00 0.  1.
       14    1    4    4    0    0  0.23427489376E+02 -0.34471921782E+02  0.20330881409E+02  0.46373541903E+02  0.00000000000E+00 0. -1.
       -5    1    5    5    0  504 -0.51152614595E+02 -0.18359479361E+02 -0.38037360524E+02  0.66502565800E+02  0.47000000000E+01 0.  1.
        3    1    6    6  502    0  0.18231924044E+01  0.46797995258E+02 -0.82633413011E+02  0.94982405405E+02  0.00000000000E+00 0. -1.
       -4    1    6    6    0  502  0.54366296920E+02  0.46663206034E+02 -0.18231808103E+02  0.73929343734E+02  0.00000000000E+00 0.  1.
</event>
<event>
12   0  0.1523332E-01  0.1791910E+03  0.7957747E-01  0.1174180E+00
       -1   -1    0    0    0  501  0.00000000000E+00  0.00000000000E+00  0.53155333184E+02  0.53155333184E+02  0.00000000000E+00 0. -1.
        1   -1    0    0  502    0  0.00000000000E+00  0.00000000000E+00 -0.60849920343E+03  0.60849920343E+03  0.00000000000E+00 0.  1.
        6    2    1    2  502    0 -0.54118754772E+02 -0.12123213834E+02 -0.30964090174E+03  0.35913366726E+03  0.17327345728E+03 0.  0.
       24    2    3    3    0    0  0.30732772026E+01  0.98881232932E+01 -0.50231918091E+02  0.92543085505E+02  0.77030883837E+02 0.  0.
       -6    2    1    2    0  501  0.54118754772E+02  0.12123213834E+02 -0.24570296850E+03  0.30252086935E+03  0.16755033790E+03 0.  0.
      -24    2    5    5    0    0  0.95003824758E+02 -0.32537370577E+02 -0.14013577625E+03  0.18073138365E+03  0.54234583494E+02 0.  0.
        5    1    3    3  502    0 -0.57192031975E+02 -0.22011337127E+02 -0.25940898365E+03  0.26659058176E+03  0.47000000000E+01 0. -1.
      -13    1    4    4    0    0 -0.28492927734E+02 -0.18557889217E+02 -0.30559251759E+02  0.45717721412E+02  0.00000000000E+00 0.  1.
       14    1    4    4    0    0  0.31566204936E+02  0.28446012511E+02 -0.19672666333E+02  0.46825364093E+02  0.00000000000E+00 0. -1.
       -5    1    5    5    0  501 -0.40885069986E+02  0.44660584410E+02 -0.10556719225E+03  0.12178948570E+03  0.47000000000E+01 0.  1.
        1    1    6    6  503    0  0.68692976100E+02 -0.46710152016E+02 -0.11382978191E+03  0.14091764445E+03  0.00000000000E+00 0. -1.
       -2    1    6    6    0  503  0.26310848658E+02  0.14172781439E+02 -0.26305994344E+02  0.39813739202E+02  0.00000000000E+00 0.  1.
</event>
<event>
12   0  0.1523332E-01  0.2082430E+03  0.7957747E-01  0.1149436E+00
       21   -1    0    0  504  503  0.00000000000E+00  0.00000000000E+00  0.57551275497E+03  0.57551275497E+03  0.00000000000E+00 0. -1.
       21   -1    0    0  501  504  0.00000000000E+00  0.00000000000E+00 -0.10070764960E+03  0.10070764960E+03  0.00000000000E+00 0.  1.
        6    2    1    2  501    0  0.10888380761E+03 -0.30146581632E+02  0.65087715253E+02  0.21661895591E+03  0.17298225759E+03 0.  0.
       24    2    3    3    0    0  0.61433023351E+02  0.34252831583E+02  0.81400605714E+02  0.13484449936E+03  0.81300108040E+02 0.  0.
       -6    2    1    2    0  503 -0.10888380761E+03  0.30146581632E+02  0.40971739011E+03  0.45960144866E+03  0.17493042017E+03 0.  0.
      -24    2    5    5    0    0 -0.99269412577E+02  0.10476405916E+02  0.41706109687E+03  0.43603510754E+03  0.78882730259E+02 0.  0.
        5    1    3    3  501    0  0.47450784263E+02 -0.64399413215E+02 -0.16312890462E+02  0.81774456555E+02  0.47000000000E+01 0. -1.
      -13    1    4    4    0    0  0.29255859689E+02 -0.46498984847E+01 -0.92925772102E+01  0.31046398716E+02  0.00000000000E+00 0.  1.
       14    1    4    4    0    0  0.32177163662E+02  0.38902730067E+02  0.90693182925E+02  0.10379810064E+03  0.00000000000E+00 0. -1.
       -5    1    5    5    0  503 -0.96143950373E+01  0.19670175717E+02 -0.73437067553E+01  0.23566341115E+02  0.47000000000E+01 0.  1.
        1    1    6    6  502    0 -0.45540814311E+02  0.44429831362E+02  0.21445334829E+03  0.22369223115E+03  0.00000000000E+00 0. -1.
       -2    1    6    6    0  502 -0.53728598265E+02 -0.33953425446E+02  0.20260774858E+03  0.21234287639E+03  0.00000000000E+00 0.  1.
</event>
<event>
12   0  0.1523332E-01  0.2154629E+03  0.7957747E-01  0.1143968E+00
       -2   -1    0    0    0  501  0.00000000000E+00  0.00000000000E+00  0.13836953836E+03  0.13836953836E+03  0.00000000000E+00 0.  1.
        2   -1    0    0  502    0  0.00000000000E+00  0.00000000000E+00 -0.38398880236E+03  0.38398880236E+03  0.00000000000E+00 0. -1.
        6    2    1    2  502    0  0.10567267060E+03 -0.77628504961E+02 -0.21623992752E+03  0.30617308209E+03  0.17259592072E+03 0.  0.
       24    2    3    3    0    0  0.59070963553E+02 -0.35657546822E+02 -0.30152664688E+02  0.10974538594E+03  0.79837504767E+02 0.  0.
       -6    2    1    2    0  501 -0.10567267060E+03  0.77628504961E+02 -0.29379336484E+02  0.21618525864E+03  0.16935177160E+03 0.  0.
      -24    2    5    5    0    0 -0.72968997472E+02  0.11163163694E+03  0.86003258537E+01  0.15543751817E+03  0.79377323546E+02 0.  0.
        5    1    3    3  502    0  0.46601707047E+02 -0.41970958140E+02 -0.18608726283E+03  0.19642769615E+03  0.47000000000E+01 0. -1.
        4    1    4    4  503    0  0.59403013308E+02  0.84879010542E+01 -0.86032384719E+01  0.60619948586E+02  0.00000000000E+00 0. -1.
       -3    1    4    4    0  503 -0.33204975452E+00 -0.44145447876E+02 -0.21549426216E+02  0.49125437356E+02  0.00000000000E+00 0.  1.
       -5    1    5    5    0  501 -0.32703673129E+02 -0.34003131976E+02 -0.37979662338E+02  0.60747740465E+02  0.47000000000E+01 0.  1.
       11    1    6    6    0    0 -0.78489852019E+02  0.88995573747E+02 -0.18061528954E+02  0.12002952905E+03  0.00000000000E+00 0. -1.
      -12    1    6    6    0    0  0.55208545470E+01  0.22636063190E+02  0.26661854807E+02  0.35407989119E+02  0.00000000000E+00 0.  1.
</event>
<event>
12   0  0.1523332E-01  0.2098132E+03  0.7957747E-01  0.1148227E+00
       -2   -1    0    0    0  501  0.00000000000E+00  0.00000000000E+00  0.34735179949E+03  0.34735179949E+03  0.00000000000E+00 0.  1.
        2   -1    0    0  502    0  0.00000000000E+00  0.00000000000E+00 -0.14610323942E+03  0.14610323942E+03  0.00000000000E+00 0. -1.
        6    2    1    2  502    0 -0.64907175880E+02  0.99391257545E+02  0.19029725979E+03  0.28297493740E+03  0.17254044325E+03 0.  0.
       24    2    3    3    0    0 -0.87055783891E+02  0.14222974068E+02  0.10906317078E+03  0.16311975576E+03  0.83260296661E+02 0.  0.
       -6    2    1    2    0  501  0.64907175880E+02 -0.99391257545E+02  0.10951300276E+02  0.21048010151E+03  0.17346578509E+03 0.  0.
      -24    2    5    5    0    0  0.38730832648E+01 -0.35115292992E+02 -0.53398917475E+02  0.10084616240E+03  0.77912896927E+02 0.  0.
        5    1    3    3  502    0  0.22148608011E+02  0.85168283477E+02  0.81234089016E+02  0.11985518164E+03  0.47000000000E+01 0. -1.
        2    1    4    4  503    0 -0.53200438953E+02 -0.23726238328E+02  0.21952531393E+02  0.62250580114E+02  0.00000000000E+00 0. -1.
       -1    1    4    4    0  503 -0.33855344938E+02  0.37949212395E+02  0.87110639383E+02  0.10086917565E+03  0.00000000000E+00 0.  1.
       -5    1    5    5    0  501  0.61034092615E+02 -0.64275964552E+02  0.64350217750E+02  0.10963393911E+03  0.47000000000E+01 0.  1.
       13    1    6    6    0    0  0.20629643946E+02  0.21605019985E+01  0.11824631015E+02  0.23876178020E+02  0.00000000000E+00 0. -1.
      -14    1    6    6    0    0 -0.16756560681E+02 -0.37275794991E+02 -0.65223548489E+02  0.76969984381E+02  0.00000000000E+00 0.  1.
</event>
<event>
12   0  0.1523332E-01  0.1821564E+03  0.7957747E-01  0.1171426E+00
       21   -1    0    0  504  503  0.00000000000E+00  0.00000000000E+00  0.42367846253E+02  0.42367846253E+02  0.00000000000E+00 0. -1.
       21   -1    0    0  501  504  0.00000000000E+00  0.00000000000E+00 -0.76872463374E+03  0.76872463374E+03  0.00000000000E+00 0. -1.
        6    2    1    2  501    0  0.85847171958E+01 -0.38580422794E+02 -0.38693293362E+03  0.42766583095E+03  0.17781681993E+03 0.  0.
       24    2    3    3    0    0  0.31208292314E+02  0.37793567424E+02 -0.27194867485E+03  0.28770768615E+03  0.80108174770E+02 0.  0.
       -6    2    1    2    0  503 -0.85847171958E+01  0.38580422794E+02 -0.33942385388E+03  0.38342664905E+03  0.17391174840E+03 0.  0.
      -24    2    5    5    0    0 -0.11922524065E+02  0.16817050327E+02 -0.86453273276E+02  0.12945619804E+03  0.94126399007E+02 0.  0.
        5    1    3    3  501    0 -0.22623575118E+02 -0.76373990218E+02 -0.11498425876E+03  0.13995814480E+03  0.47000000000E+01 0. -1.
      -11    1    4    4    0    0  0.13938494098E+02 -0.22472246475E+02 -0.44374331839E+02  0.51656217492E+02  0.00000000000E+00 0.  1.
       12    1    4    4    0    0  0.17269798216E+02  0.60265813900E+02 -0.22757434302E+03  0.23605146866E+03  0.00000000000E+00 0. -1.
       -5    1    5    5    0  503  0.33378068696E+01  0.21763372467E+02 -0.25297058060E+03  0.25397045101E+03  0.47000000000E+01 0.  1.
        3    1    6    6  502    0 -0.33950450258E+02 -0.11474938020E+02 -0.86467648729E+02  0.93600008290E+02  0.00000000000E+00 0. -1.
       -4    1    6    6    0  502  0.22027926193E+02  0.28291988347E+02  0.14375452827E-01  0.35856189753E+02  0.00000000000E+00 0.  1.
</event>
<event>
12   0  0.1523332E-01  0.2099627E+03  0.7957747E-01  0.1148112E+00
       21   -1    0    0  504  503  0.00000000000E+00  0.00000000000E+00  0.33138651083E+03  0.33138651083E+03  0.00000000000E+00 0.  1.
       21   -1    0    0  501  504  0.00000000000E+00  0.00000000000E+00 -0.13659062051E+03  0.13659062051E+03  0.00000000000E+00 0.  1.
        6    2    1    2  501    0 -0.10495771628E+03  0.54503953690E+02  0.57422096692E+02  0.21767322003E+03  0.17348639818E+03 0.  0.
       24    2    3    3    0    0 -0.83702247223E+02 -0.19734541626E+02 -0.57250478428E+01  0.11780930755E+03  0.80316489275E+02 0.  0.
       -6    2    1    2    0  503  0.10495771628E+03 -0.54503953690E+02  0.13737379363E+03  0.25030391131E+03  0.17260847507E+03 0.  0.
      -24    2    5    5    0    0  0.42479152871E+02  0.35626838225E+02  0.81506979083E+02  0.12713605225E+03  0.80289713615E+02 0.  0.
        5    1    3    3  501    0 -0.21255469058E+02  0.74238495316E+02  0.63147144535E+02  0.99863912474E+02  0.47000000000E+01 0. -1.
        4    1    4    4  502    0 -0.43788530614E+02 -0.10151078940E+02  0.37251394908E+02  0.58379330585E+02  0.00000000000E+00 0. -1.
       -3    1    4    4    0  502 -0.39913716609E+02 -0.95834626865E+01 -0.42976442751E+02  0.59429976966E+02  0.00000000000E+00 0.  1.
       -5    1    5    5    0  503  0.62478563410E+02 -0.90130791915E+02  0.55866814550E+02  0.12316785906E+03  0.47000000000E+01 0.  1.
       11    1    6    6    0    0 -0.23953588632E+02  0.54219069241E+01  0.19062406099E+02  0.31089335942E+02  0.00000000000E+00 0. -1.
      -12    1    6    6    0    0  0.66432741504E+02  0.30204931301E+02  0.62444572984E+02  0.96046716309E+02  0.00000000000E+00 0.  1.
</event>
<event>
12   0  0.1523332E-01  0.2517546E+03  0.7957747E-01  0.1119639E+00
       21   -1    0    0  501  503  0.00000000000E+00  0.00000000000E+00  0.93198280887E+02  0.93198280887E+02  0.00000000000E+00 0. -1.
       21   -1    0    0  503  504  0.00000000000E+00  0.00000000000E+00 -0.10397524928E+04  0.10397524928E+04  0.00000000000E+00 0.  1.
        6    2    1    2  501    0  0.16159650638E+03 -0.84585346912E+02 -0.80814956780E+03  0.84645503125E+03  0.17352891460E+03 0.  0.
       24    2    3    3    0    0  0.14304367093E+03 -0.10250508796E+03 -0.48344173564E+03  0.52069040596E+03  0.80210985841E+02 0.  0.
       -6    2    1    2    0  504 -0.16159650638E+03  0.84585346912E+02 -0.13840464410E+03  0.28649574243E+03  0.17220874872E+03 0.  0.
      -24    2    5    5    0    0 -0.85282319979E+02  0.12926748758E+01 -0.13724267239E+02  0.11818409507E+03  0.80649734705E+02 0.  0.
        5    1    3    3  501    0  0.18552835443E+02  0.17919741043E+02 -0.32470783216E+03  0.32576462529E+03  0.47000000000E+01 0. -1.
        2    1    4    4  502    0  0.54158599011E+01 -0.25913702240E+02 -0.26895041604E+02  0.37738505073E+02  0.00000000000E+00 0. -1.
       -1    1    4    4    0  502  0.13762781103E+03 -0.76591385715E+02 -0.45654669404E+03  0.48295190089E+03  0.00000000000E+00 0.  1.
       -5    1    5    5    0  504 -0.76314186396E+02  0.83292672036E+02 -0.12468037686E+03  0.16831164735E+03  0.47000000000E+01 0.  1.
       11    1    6    6    0    0 -0.33986186460E+02 -0.30255935072E+02  0.19386769421E+02  0.49460381173E+02  0.00000000000E+00 0. -1.
      -12    1    6    6    0    0 -0.51296133519E+02  0.31548609948E+02 -0.33111036661E+02  0.68723713902E+02  0.00000000000E+00 0.  1.
</event>
<event>
12   0  0.1523332E-01  0.2278980E+03  0.7957747E-01  0.1135078E+00
       -3   -1    0    0    0  501  0.00000000000E+00  0.00000000000E+00  0.45930580240E+03  0.45930580240E+03  0.00000000000E+00 0.  1.
        3   -1    0    0  502    0  0.00000000000E+00  0.00000000000E+00 -0.12377775896E+03  0.12377775896E+03  0.00000000000E+00 0. -1.
        6    2    1    2  502    0 -0.62707982462E+02  0.13367633417E+03  0.82017314213E+02  0.24216393340E+03  0.17353638646E+03 0.  0.
       24    2    3    3    0    0 -0.25165455986E+02  0.12075339177E+03  0.11787008318E+03  0.18846146812E+03  0.80060518716E+02 0.  0.
       -6    2    1    2    0  501  0.62707982462E+02 -0.13367633417E+03  0.25351072923E+03  0.34091962796E+03  0.17365727601E+03 0.  0.
      -24    2    5    5    0    0  0.88612129628E+02 -0.92494004835E+02  0.10435884985E+03  0.18396300270E+03  0.80897258130E+02 0.  0.
        5    1    3    3  502    0 -0.37542526476E+02  0.12922942402E+02 -0.35852768970E+02  0.53702465281E+02  0.47000000000E+01 0. -1.
      -11    1    4    4    0    0  0.17227376931E+01  0.62433664371E+01 -0.11756638544E+02  0.13422592875E+02  0.00000000000E+00 0.  1.
       12    1    4    4    0    0 -0.26888193680E+02  0.11451002534E+03  0.12962672173E+03  0.17503887525E+03  0.00000000000E+00 0. -1.
       -5    1    5    5    0  501 -0.25904147166E+02 -0.41182329339E+02  0.14915187938E+03  0.15695662526E+03  0.47000000000E+01 0.  1.
        1    1    6    6  503    0  0.38838716745E+02 -0.91561009918E+02  0.83980435284E+02  0.13017134080E+03  0.00000000000E+00 0. -1.
       -2    1    6    6    0  503  0.49773412883E+02 -0.93299491722E+00  0.20378414562E+02  0.53791661896E+02  0.00000000000E+00 0.  1.
</event>
<event>
12   0  0.1523332E-01  0.3708647E+03  0.7957747E-01  0.1063363E+00
       21   -1    0    0  501  503  0.00000000000E+00  0.00000000000E+00  0.85079996492E+03  0.85079996492E+03  0.00000000000E+00 0.  1.
       21   -1    0    0  503  504  0.00000000000E+00  0.00000000000E+00 -0.19585620053E+03  0.19585620053E+03  0.00000000000E+00 0.  1.
        6    2    1    2  501    0  0.61084957341E+00 -0.32815952151E+03  0.54644553697E+03  0.66024644159E+03  0.17214410843E+03 0.  0.
       24    2    3    3    0    0 -0.16834134957E+02 -0.31189415548E+03  0.54827599897E+03  0.63586755301E+03  0.78483256827E+02 0.  0.
       -6    2    1    2    0  504 -0.61084957341E+00  0.32815952151E+03  0.10849822743E+03  0.38640972385E+03  0.17277605343E+03 0.  0.
      -24    2    5    5    0    0 -0.45858368092E+02  0.21869600483E+03  0.12300778394E+03  0.26698520105E+03  0.78862223014E+02 0.  0.
        5    1    3    3  501    0  0.17444984531E+02 -0.16265366034E+02 -0.18304620005E+01  0.24378888585E+02  0.47000000000E+01 0. -1.
      -11    1    4    4    0    0 -0.30980421343E+02 -0.44162670978E+02  0.93396743273E+02  0.10785675532E+03  0.00000000000E+00 0.  1.
       12    1    4    4    0    0  0.14146286386E+02 -0.26773148450E+03  0.45487925570E+03  0.52801079769E+03  0.00000000000E+00 0. -1.
       -5    1    5    5    0  504  0.45247518518E+02  0.10946351668E+03 -0.14509556509E+02  0.11942452280E+03  0.47000000000E+01 0.  1.
        3    1    6    6  502    0  0.72550677846E+01  0.82137782289E+02  0.78505679031E+02  0.11385250515E+03  0.00000000000E+00 0. -1.
       -4    1    6    6    0  502 -0.53113435876E+02  0.13655822254E+03  0.44502104907E+02  0.15313269591E+03  0.00000000000E+00 0.  1.
</event>
<event>
12   0  0.1523332E-01  0.2655164E+03  0.7957747E-01  0.1111557E+00
       21   -1    0    0  501  503  0.00000000000E+00  0.00000000000E+00  0.50610126723E+03  0.50610126723E+03  0.00000000000E+00 0. -1.
       21   -1    0    0  503  504  0.00000000000E+00  0.00000000000E+00 -0.14313820786E+03  0.14313820786E+03  0.00000000000E+00 0.  1.
        6    2    1    2  501    0  0.53663499261E+02 -0.19239064845E+03  0.23789129541E+03  0.35649857889E+03  0.17494294944E+03 0.  0.
       24    2    3    3    0    0 -0.72553350911E+01 -0.18515370996E+03  0.20085057233E+03  0.28468226582E+03  0.79802906382E+02 0.  0.
       -6    2    1    2    0  504 -0.53663499261E+02  0.19239064845E+03  0.12507176396E+03  0.29274089620E+03  0.17366736425E+03 0.  0.
      -24    2    5    5    0    0 -0.71402918647E+02  0.20675316184E+03  0.13291673627E+03  0.26815223252E+03  0.79959454106E+02 0.  0.
        5    1    3    3  501    0  0.60918834353E+02 -0.72369384884E+01  0.37040723075E+02  0.71816313074E+02  0.47000000000E+01 0. -1.
      -13    1    4    4    0    0  0.75678177923E+01 -0.60722391870E+02  0.19452367878E+02  0.64209620437E+02  0.00000000000E+00 0.  1.
       14    1    4    4    0    0 -0.14823152883E+02 -0.12443131809E+03  0.18139820445E+03  0.22047264538E+03  0.00000000000E+00 0. -1.
       -5    1    5    5    0  504  0.17739419386E+02 -0.14362513395E+02 -0.78449723129E+01  0.24588663684E+02  0.47000000000E+01 0.  1.
        3    1    6    6  502    0 -0.69603409171E+00  0.12365884569E+03  0.74998704285E+02  0.14462641607E+03  0.00000000000E+00 0. -1.
       -4    1    6    6    0  502 -0.70706884556E+02  0.83094316154E+02  0.57918031989E+02  0.12352581645E+03  0.00000000000E+00 0.  1.
</event>
<event>
12   0  0.1523332E-01  0.2754269E+03  0.7957747E-01  0.1106060E+00
       21   -1    0    0  501  503  0.00000000000E+00  0.00000000000E+00  0.12170156697E+03  0.12170156697E+03  0.00000000000E+00 0. -1.
       21   -1    0    0  503  504  0.00000000000E+00  0.00000000000E+00 -0.62342619124E+03  0.62342619124E+03  0.00000000000E+00 0.  1.
        6    2    1    2  501    0 -0.20626581246E+03 -0.51481963384E+02 -0.22600220174E+03  0.35540628603E+03  0.17332240194E+03 0.  0.
       24    2    3    3    0    0 -0.51786807074E+02 -0.56665511080E+02 -0.58551211674E+02  0.12747525184E+03  0.83239665490E+02 0.  0.
       -6    2    1    2    0  504  0.20626581246E+03  0.51481963384E+02 -0.27572242253E+03  0.38972147218E+03  0.17511137497E+03 0.  0.
      -24    2    5    5    0    0  0.14638101172E+03  0.23589569824E+02 -0.27631491218E+03  0.32348993874E+03  0.79447727296E+02 0.  0.
        5    1    3    3  501    0 -0.15447900539E+03  0.51835476965E+01 -0.16745099007E+03  0.22793103419E+03  0.47000000000E+01 0. -1.
      -11    1    4    4    0    0 -0.43505243315E+02 -0.55079364470E+02 -0.78808538583E+02  0.10553306752E+03  0.00000000000E+00 0.  1.
       12    1    4    4    0    0 -0.82815637594E+01 -0.15861466100E+01  0.20257326909E+02  0.21942184323E+02  0.00000000000E+00 0. -1.
       -5    1    5    5    0  504  0.59884800739E+02  0.27892393560E+02  0.59248964795E+00  0.66231533442E+02  0.47000000000E+01 0.  1.
        3    1    6    6  502    0  0.39307042305E+02 -0.19808552121E+02 -0.36067686758E+02  0.56906065933E+02  0.00000000000E+00 0. -1.
       -4    1    6    6    0  502  0.10707396942E+03  0.43398121945E+02 -0.24024722542E+03  0.26658387280E+03  0.00000000000E+00 0.  1.
</event>
<event>
12   0  0.1523332E-01  0.2607938E+03  0.7957747E-01  0.1114270E+00
       21   -1    0    0  501  503  0.00000000000E+00  0.00000000000E+00  0.27507144655E+03  0.27507144655E+03  0.00000000000E+00 0. -1.
       21   -1    0    0  503  504  0.00000000000E+00  0.00000000000E+00 -0.26053156095E+03  0.26053156095E+03  0.00000000000E+00 0. -1.
        6    2    1    2  501    0 -0.19148471250E+03 -0.34831716228E+02  0.78995344688E+02  0.26696211494E+03  0.16476911954E+03 0.  0.
       24    2    3    3    0    0 -0.15237751670E+03  0.77336649521E+01  0.76655260453E+01  0.17503161148E+03  0.85431771365E+02 0.  0.
       -6    2    1    2    0  504  0.19148471250E+03  0.34831716228E+02 -0.64455459093E+02  0.26864089256E+03  0.17359083896E+03 0.  0.
      -24    2    5    5    0    0  0.68160970469E+02  0.11933215567E+02 -0.91003425390E+02  0.14034447329E+03  0.81404104457E+02 0.  0.
        5    1    3    3  501    0 -0.39107195801E+02 -0.42565381180E+02  0.71329818643E+02  0.91930503458E+02  0.47000000000E+01 0. -1.
        4    1    4    4  502    0 -0.69172100140E+02  0.80913193618E+01  0.45953900600E+02  0.83438659308E+02  0.00000000000E+00 0. -1.
       -3    1    4    4    0  502 -0.83205416559E+02 -0.35765440971E+00 -0.38288374555E+02  0.91592952172E+02  0.00000000000E+00 0.  1.
       -5    1    5    5    0  504  0.12332374203E+03  0.22898500661E+02  0.26547966297E+02  0.12829641926E+03  0.47000000000E+01 0.  1.
       13    1    6    6    0    0  0.70677084733E+02 -0.20917518535E+02 -0.66659833034E+02  0.99379707325E+02  0.00000000000E+00 0. -1.
      -14    1    6    6    0    0 -0.25161142637E+01  0.32850734103E+02 -0.24343592357E+02  0.40964765969E+02  0.00000000000E+00 0.  1.
</event>
<event>
12   0  0.1523332E-01  0.1869197E+03  0.7957747E-01  0.1167119E+00
        1   -1    0    0  502    0  0.00000000000E+00  0.00000000000E+00  0.63059673165E+03  0.63059673165E+03  0.00000000000E+00 0.  1.
       -1   -1    0    0    0  501  0.00000000000E+00  0.00000000000E+00 -0.58617392702E+02  0.58617392702E+02  0.00000000000E+00 0. -1.
        6    2    1    2  502    0 -0.32166443870E+02 -0.53082352153E+02  0.37109542855E+03  0.41698705717E+03  0.17976087599E+03 0.  0.
       24    2    3    3    0    0  0.12043875967E+01  0.40875648107E+02  0.18397258162E+03  0.20490507291E+03  0.80423311032E+02 0.  0.
       -6    2    1    2    0  501  0.32166443870E+02  0.53082352153E+02  0.20088391040E+03  0.27222706718E+03  0.17291851962E+03 0.  0.
      -24    2    5    5    0    0 -0.38691074082E+02  0.19525286869E+02  0.15801857993E+03  0.18274862823E+03  0.80925604582E+02 0.  0.
        5    1    3    3  502    0 -0.33370831467E+02 -0.93958000260E+02  0.18712284693E+03  0.21208198426E+03  0.47000000000E+01 0. -1.
      -13    1    4    4    0    0  0.26456468768E+02 -0.10767240109E+02  0.93035831193E+02  0.97321858207E+02  0.00000000000E+00 0.  1.
       14    1    4    4    0    0 -0.25252081171E+02  0.51642888216E+02  0.90936750430E+02  0.10758321470E+03  0.00000000000E+00 0. -1.
       -5    1    5    5    0  501  0.70857517952E+02  0.33557065284E+02  0.42865330469E+02  0.89478438951E+02  0.47000000000E+01 0.  1.
        1    1    6    6  503    0 -0.38618263149E+01  0.43085116219E+02  0.46226022046E+02  0.63309446817E+02  0.00000000000E+00 0. -1.
       -2    1    6    6    0  503 -0.34829247767E+02 -0.23559829349E+02  0.11179255789E+03  0.11943918142E+03  0.00000000000E+00 0.  1.
</event>
<event>
12   0  0.1523332E-01  0.4391458E+03  0.7957747E-01  0.1040547E+00
       21   -1    0    0  501  503  0.00000000000E+00  0.00000000000E+00  0.58545587884E+03  0.58545587884E+03  0.00000000000E+00 0. -1.
       21   -1    0    0  503  504  0.00000000000E+00  0.00000000000E+00 -0.34398445360E+03  0.34398445360E+03  0.00000000000E+00 0. -1.
        6    2    1    2  501    0  0.31229252510E+03 -0.25627823780E+03  0.22067286652E+03  0.49147286810E+03  0.17217406792E+03 0.  0.
       24    2    3    3    0    0  0.19072502159E+03 -0.14595527316E+03  0.57754742587E+02  0.26014146181E+03  0.81602660698E+02 0.  0.
       -6    2    1    2    0  504 -0.31229252510E+03  0.25627823780E+03  0.20798558726E+02  0.43796746434E+03  0.16786233457E+03 0.  0.
      -24    2    5    5    0    0 -0.25935730884E+03  0.25625138170E+03 -0.15725929698E+02  0.37348284527E+03  0.79442725127E+02 0.  0.
        5    1    3    3  501    0  0.12156750350E+03 -0.11032296464E+03  0.16291812393E+03  0.23133140630E+03  0.47000000000E+01 0. -1.
      -11    1    4    4    0    0  0.22884191128E+02 -0.52759843785E+02 -0.60759682723E+01  0.57829099165E+02  0.00000000000E+00 0.  1.
       12    1    4    4    0    0  0.16784083047E+03 -0.93195429380E+02  0.63830710859E+02  0.20231236264E+03  0.00000000000E+00 0. -1.
       -5    1    5    5    0  504 -0.52935216254E+02  0.26856105750E-01  0.36524488424E+02  0.64484619063E+02  0.47000000000E+01 0.  1.
        3    1    6    6  502    0 -0.23191047342E+03  0.18485997248E+03 -0.15860569154E+02  0.29699702820E+03  0.00000000000E+00 0. -1.
       -4    1    6    6    0  502 -0.27446835422E+02  0.71391409223E+02  0.13463945574E+00  0.76485817073E+02  0.00000000000E+00 0.  1.
</event>
<event>
12   0  0.1523332E-01  0.1849602E+03  0.7957747E-01  0.1168874E+00
       21   -1    0    0  501  503  0.00000000000E+00  0.00000000000E+00  0.11542459523E+03  0.11542459523E+03  0.00000000000E+00 0. -1.
       21   -1    0    0  503  504  0.00000000000E+00  0.00000000000E+00 -0.29574645068E+03  0.29574645068E+03  0.00000000000E+00 0. -1.
        6    2    1    2  501    0 -0.13434738766E+02 -0.63010280007E+02 -0.98226657907E+02  0.20942480871E+03  0.17337671870E+03 0.  0.
       24    2    3    3    0    0 -0.54948363815E+02 -0.78731288692E+02 -0.31764159408E+02  0.12936305201E+03  0.80671549492E+02 0.  0.
       -6    2    1    2    0  504  0.13434738766E+02  0.63010280007E+02 -0.82095197544E+02  0.20174623719E+03  0.17265901416E+03 0.  0.
      -24    2    5    5    0    0  0.33440541388E+02 -0.27836675033E+02 -0.46970843502E+02  0.10220121409E+03  0.79659762339E+02 0.  0.
        5    1    3    3  501    0  0.41513625049E+02  0.15721008685E+02 -0.66462498499E+02  0.80061756697E+02  0.47000000000E+01 0. -1.
      -13    1    4    4    0    0 -0.75230377935E+01 -0.56391826123E+02  0.15299865517E+02  0.58912817247E+02  0.00000000000E+00 0.  1.
       14    1    4    4    0    0 -0.47425326021E+02 -0.22339462569E+02 -0.47064024925E+02  0.70450234763E+02  0.00000000000E+00 0. -1.
       -5    1    5    5    0  504 -0.20005802623E+02  0.90846955041E+02 -0.35124354042E+02  0.99545023108E+02  0.47000000000E+01 0.  1.
        3    1    6    6  502    0 -0.25393375405E+02 -0.10054064597E+02 -0.49735484136E+01  0.27760473937E+02  0.00000000000E+00 0. -1.
       -4    1    6    6    0  502  0.58833916793E+02 -0.17782610436E+02 -0.41997295089E+02  0.74440740149E+02  0.00000000000E+00 0.  1.
</event>
<event>
12   0  0.1523332E-01  0.1778841E+03  0.7957747E-01  0.1175413E+00
       21   -1    0    0  504  503  0.00000000000E+00  0.00000000000E+00  0.14954470463E+03  0.14954470463E+03  0.00000000000E+00 0. -1.
       21   -1    0    0  501  504  0.00000000000E+00  0.00000000000E+00 -0.41631616755E+03  0.41631616755E+03  0.00000000000E+00 0. -1.
        6    2    1    2  501    0 -0.12328313001E+02  0.41841063053E+02 -0.33328195779E+03  0.37778251740E+03  0.17245319715E+03 0.  0.
       24    2    3    3    0    0 -0.56631946721E+02 -0.24125579510E+02 -0.86918193357E+02  0.11887789342E+03  0.52801138551E+02 0.  0.
       -6    2    1    2    0  503  0.12328313001E+02 -0.41841063053E+02  0.66510494873E+02  0.18807835477E+03  0.17043227320E+03 0.  0.
      -24    2    5    5    0    0  0.19179952234E+02 -0.21898301891E+02  0.10979774789E+03  0.13969927917E+03  0.81319966579E+02 0.  0.
        5    1    3    3  501    0  0.44303633720E+02  0.65966642562E+02 -0.24636376444E+03  0.25890462398E+03  0.47000000000E+01 0. -1.
      -11    1    4    4    0    0 -0.36247531050E+02 -0.11905674487E+02 -0.87122702853E+02  0.95110430262E+02  0.00000000000E+00 0.  1.
       12    1    4    4    0    0 -0.20384415671E+02 -0.12219905023E+02  0.20450949584E+00  0.23767463162E+02  0.00000000000E+00 0. -1.
       -5    1    5    5    0  503 -0.68516392331E+01 -0.19942761161E+02 -0.43287253017E+02  0.48379075608E+02  0.47000000000E+01 0.  1.
        1    1    6    6  502    0 -0.25143815612E+02  0.83703599538E+01  0.14200908180E+02  0.30065597989E+02  0.00000000000E+00 0. -1.
       -2    1    6    6    0  502  0.44323767847E+02 -0.30268661845E+02  0.95596839710E+02  0.10963368118E+03  0.00000000000E+00 0.  1.
</event>
<event>
12   0  0.1523332E-01  0.3795774E+03  0.7957747E-01  0.1060169E+00
       -1   -1    0    0    0  501  0.00000000000E+00  0.00000000000E+00  0.15674211501E+03  0.15674211501E+03  0.00000000000E+00 0. -1.
        1   -1    0    0  502    0  0.00000000000E+00  0.00000000000E+00 -0.92038536002E+03  0.92038536002E+03  0.00000000000E+00 0.  1.
        6    2    1    2  502    0  0.24599648332E+03 -0.23128391756E+03 -0.36296611139E+03  0.52546041801E+03  0.17423470536E+03 0.  0.
       24    2    3    3    0    0  0.55055732279E+02 -0.83518221845E+02 -0.18139081674E+03  0.22332675742E+03  0.83461279309E+02 0.  0.
       -6    2    1    2    0  501 -0.24599648332E+03  0.23128391756E+03 -0.40067713362E+03  0.55166705702E+03  0.17259158748E+03 0.  0.
      -24    2    5    5    0    0 -0.25060224240E+03  0.20252980771E+03 -0.30055278480E+03  0.44728800224E+03  0.76907565244E+02 0.  0.
        5    1    3    3  502    0  0.19094075104E+03 -0.14776569571E+03 -0.18157529465E+03  0.30213366059E+03  0.47000000000E+01 0. -1.
      -11    1    4    4    0    0  0.57836630734E+02 -0.98925861721E+02 -0.15803637041E+03  0.19520987768E+03  0.00000000000E+00 0.  1.
       12    1    4    4    0    0 -0.27808984548E+01  0.15407639875E+02 -0.23354446327E+02  0.28116879734E+02  0.00000000000E+00 0. -1.
       -5    1    5    5    0  501  0.46057590785E+01  0.28754109849E+02 -0.10012434882E+03  0.10437905478E+03  0.47000000000E+01 0.  1.
        3    1    6    6  503    0 -0.61171606340E+02  0.29105540406E+02 -0.29506333901E+02  0.73889929251E+02  0.00000000000E+00 0. -1.
       -4    1    6    6    0  503 -0.18943063606E+03  0.17342426731E+03 -0.27104645090E+03  0.37339807299E+03  0.00000000000E+00 0.  1.
</event>
<event>
12   0  0.1523332E-01  0.2212920E+03  0.7957747E-01  0.1139721E+00
       -2   -1    0    0    0  501  0.00000000000E+00  0.00000000000E+00  0.18081548649E+03  0.18081548649E+03  0.00000000000E+00 0.  1.
        2   -1    0    0  502    0  0.00000000000E+00  0.00000000000E+00 -0.27801222886E+03  0.27801222886E+03  0.00000000000E+00 0. -1.
        6    2    1    2  502    0  0.56064196749E+02 -0.12795423336E+03 -0.84872695975E+02  0.23477160280E+03  0.16851958630E+03 0.  0.
       24    2    3    3    0    0  0.23837346951E+02 -0.64593511373E+02 -0.11658208821E+03  0.15679258963E+03  0.79069539333E+02 0.  0.
       -6    2    1    2    0  501 -0.56064196749E+02  0.12795423336E+03 -0.12324046393E+02  0.22405611255E+03  0.17473917552E+03 0.  0.
      -24    2    5    5    0    0 -0.63317862340E+02  0.78492050913E+02  0.55752931713E+02  0.13946481214E+03  0.78561381626E+02 0.  0.
        5    1    3    3  502    0  0.32226849798E+02 -0.63360721988E+02  0.31709392239E+02  0.77979013169E+02  0.47000000000E+01 0. -1.
      -13    1    4    4    0    0 -0.11892493777E+01 -0.19859228816E+02  0.84850769732E+01  0.21628680368E+02  0.00000000000E+00 0.  1.
       14    1    4    4    0    0  0.25026596329E+02 -0.44734282557E+02 -0.12506716519E+03  0.13516390926E+03  0.00000000000E+00 0. -1.
       -5    1    5    5    0  501  0.72536655915E+01  0.49462182448E+02 -0.68076978106E+02  0.84591300410E+02  0.47000000000E+01 0.  1.
        1    1    6    6  503    0  0.12826580772E+02  0.31288450881E+02 -0.24204249810E+00  0.33816370554E+02  0.00000000000E+00 0. -1.
       -2    1    6    6    0  503 -0.76144443113E+02  0.47203600032E+02  0.55994974212E+02  0.10564844159E+03  0.00000000000E+00 0.  1.
</event>
<event>
12   0  0.1523332E-01  0.1920406E+03  0.7957747E-01  0.1162644E+00
       21   -1    0    0  501  503  0.00000000000E+00  0.00000000000E+00  0.16666869773E+03  0.16666869773E+03  0.00000000000E+00 0. -1.
       21   -1    0    0  503  504  0.00000000000E+00  0.00000000000E+00 -0.28940644788E+03  0.28940644788E+03  0.00000000000E+00 0. -1.
        6    2    1    2  501    0 -0.69430214750E+02  0.32747475123E+02  0.52037700510E+02  0.19896613484E+03  0.17603024936E+03 0.  0.
       24    2    3    3    0    0 -0.55627448220E+02 -0.44976719868E+02  0.23732090462E+02  0.11497289457E+03  0.86823015626E+02 0.  0.
       -6    2    1    2    0  504  0.69430214750E+02 -0.32747475123E+02 -0.17477545067E+03  0.25710901077E+03  0.17223714296E+03 0.  0.
      -24    2    5    5    0    0  0.35229303457E+02  0.26235690931E+02 -0.16368724153E+03  0.18787206548E+03  0.81073945556E+02 0.  0.
        5    1    3    3  501    0 -0.13802766530E+02  0.77724194991E+02  0.28305610048E+02  0.83993240270E+02  0.47000000000E+01 0. -1.
      -11    1    4    4    0    0 -0.32696059931E+02 -0.24023907822E+02  0.56670956390E+02  0.69697760224E+02  0.00000000000E+00 0.  1.
       12    1    4    4    0    0 -0.22931388289E+02 -0.20952812046E+02 -0.32938865927E+02  0.45275134346E+02  0.00000000000E+00 0. -1.
       -5    1    5    5    0  504  0.34200911293E+02 -0.58983166054E+02 -0.11088209139E+02  0.69236945289E+02  0.47000000000E+01 0.  1.
        3    1    6    6  502    0  0.49599021965E+02  0.43517124230E+02 -0.95511983234E+02  0.11608764802E+03  0.00000000000E+00 0. -1.
       -4    1    6    6    0  502 -0.14369718508E+02 -0.17281433299E+02 -0.68175258293E+02  0.71784417461E+02  0.00000000000E+00 0.  1.
</event>
<event>
12   0  0.1523332E-01  0.2119596E+03  0.7957747E-01  0.1146591E+00
       21   -1    0    0  504  503  0.00000000000E+00  0.00000000000E+00  0.48977018249E+02  0.48977018249E+02  0.00000000000E+00 0.  1.
       21   -1    0    0  501  504  0.00000000000E+00  0.00000000000E+00 -0.11195322715E+04  0.11195322715E+04  0.00000000000E+00 0.  1.
        6    2    1    2  501    0  0.10338494648E+03 -0.65559061565E+02 -0.80434429750E+03  0.83180323128E+03  0.17303302845E+03 0.  0.
       24    2    3    3    0    0  0.11810685697E+03 -0.10710318365E+01 -0.58004118729E+03  0.59790279119E+03  0.84199714849E+02 0.  0.
       -6    2    1    2    0  503 -0.10338494648E+03  0.65559061565E+02 -0.26621095579E+03  0.33670605850E+03  0.16588025543E+03 0.  0.
      -24    2    5    5    0    0 -0.13724663563E+03  0.51185496844E+02 -0.23304256468E+03  0.28695220917E+03  0.81093398719E+02 0.  0.
        5    1    3    3  501    0 -0.14721910492E+02 -0.64488029729E+02 -0.22430311021E+03  0.23390044009E+03  0.47000000000E+01 0. -1.
        2    1    4    4  502    0  0.26476893544E+02  0.37266666226E+02 -0.18610636380E+03  0.19163874595E+03  0.00000000000E+00 0. -1.
       -1    1    4    4    0  502  0.91629963427E+02 -0.38337698062E+02 -0.39393482349E+03  0.40626404523E+03  0.00000000000E+00 0.  1.
       -5    1    5    5    0  503  0.33861689151E+02  0.14373564721E+02 -0.33168391105E+02  0.49753849333E+02  0.47000000000E+01 0.  1.
       11    1    6    6    0    0 -0.44426747226E+01 -0.17337280930E+02 -0.22075853789E+02  0.28419394597E+02  0.00000000000E+00 0. -1.
      -12    1    6    6    0    0 -0.13280396091E+03  0.68522777774E+02 -0.21096671089E+03  0.25853281457E+03  0.00000000000E+00 0.  1.
</event>
<event>
12   0  0.1523332E-01  0.2320936E+03  0.7957747E-01  0.1132217E+00
       21   -1    0    0  504  503  0.00000000000E+00  0.00000000000E+00  0.10378554427E+03  0.10378554427E+03  0.00000000000E+00 0. -1.
       21   -1    0    0  501  504  0.00000000000E+00  0.00000000000E+00 -0.55888922038E+03  0.55888922038E+03  0.00000000000E+00 0.  1.
        6    2    1    2  501    0 -0.26648418808E+02 -0.15155064181E+03 -0.31941484689E+03  0.39483325942E+03  0.17375190092E+03 0.  0.
       24    2    3    3    0    0 -0.89518572937E+01 -0.28232727778E+02 -0.56912151931E+02  0.10423004011E+03  0.82144297171E+02 0.  0.
       -6    2    1    2    0  503  0.26648418808E+02  0.15155064181E+03 -0.13568882922E+03  0.26784150522E+03  0.17219140015E+03 0.  0.
      -24    2    5    5    0    0 -0.30562547941E+02  0.20846978988E+02 -0.52476438152E+02  0.10260550969E+03  0.80034043933E+02 0.  0.
        5    1    3    3  501    0 -0.17696561514E+02 -0.12331791403E+03 -0.26250269496E+03  0.29060321931E+03  0.47000000000E+01 0. -1.
      -13    1    4    4    0    0 -0.23207944241E+02 -0.37582678422E+02 -0.69976526861E+02  0.82751318447E+02  0.00000000000E+00 0.  1.
       14    1    4    4    0    0  0.14256086947E+02  0.93499506435E+01  0.13064374930E+02  0.21478721666E+02  0.00000000000E+00 0. -1.
       -5    1    5    5    0  503  0.57210966750E+02  0.13070366282E+03 -0.83212391069E+02  0.16523599553E+03  0.47000000000E+01 0.  1.
        1    1    6    6  502    0  0.17909070561E+02  0.27639879238E+02 -0.30990933352E+01  0.33080237486E+02  0.00000000000E+00 0. -1.
       -2    1    6    6    0  502 -0.48471618502E+02 -0.67929002503E+01 -0.49377344817E+02  0.69525272205E+02  0.00000000000E+00 0.  1.
</event>
<event>
12   0  0.1523332E-01  0.3027345E+03  0.7957747E-01  0.1092126E+00
       -2   -1    0    0    0  501  0.00000000000E+00  0.00000000000E+00  0.77876355924E+02  0.77876355924E+02  0.00000000000E+00 0. -1.
        2   -1    0    0  502    0  0.00000000000E+00  0.00000000000E+00 -0.12398285395E+04  0.12398285395E+04  0.00000000000E+00 0.  1.
        6    2    1    2  502    0 -0.49263123070E+02 -0.24429151386E+03 -0.73016496147E+03  0.79058114154E+03  0.17254701204E+03 0.  0.
       24    2    3    3    0    0  0.28641745155E+02 -0.16573553334E+03 -0.36743356734E+03  0.41132349184E+03  0.76752667418E+02 0.  0.
       -6    2    1    2    0  501  0.49263123070E+02  0.24429151386E+03 -0.43178722214E+03  0.52712375392E+03  0.17121345655E+03 0.  0.
      -24    2    5    5    0    0  0.89621313783E+02  0.20345087664E+03 -0.38929560517E+03  0.45553905780E+03  0.80873517822E+02 0.  0.
        5    1    3    3  502    0 -0.77904868225E+02 -0.78555980519E+02 -0.36273139413E+03  0.37925764970E+03  0.47000000000E+01 0. -1.
        2    1    4    4  503    0  0.21957927281E+02 -0.33332292586E+01 -0.49344584301E+02  0.54112373702E+02  0.00000000000E+00 0. -1.
       -1    1    4    4    0  503  0.66838178740E+01 -0.16240230408E+03 -0.31808898304E+03  0.35721111814E+03  0.00000000000E+00 0.  1.
       -5    1    5    5    0  501 -0.40358190713E+02  0.40840637212E+02 -0.42491616966E+02  0.71584696115E+02  0.47000000000E+01 0.  1.
       13    1    6    6    0    0 -0.76732932994E+01 -0.20796338241E+01 -0.63837519779E+01  0.10195910759E+02  0.00000000000E+00 0. -1.
      -14    1    6    6    0    0  0.97294607082E+02  0.20553051047E+03 -0.38291185320E+03  0.44534314704E+03  0.00000000000E+00 0.  1.
</event>
<event>
12   0  0.1523332E-01  0.1966084E+03  0.7957747E-01  0.1158780E+00
       21   -1    0    0  504  503  0.00000000000E+00  0.00000000000E+00  0.55621786947E+03  0.55621786947E+03  0.00000000000E+00 0.  1.
       21   -1    0    0  501  504  0.00000000000E+00  0.00000000000E+00 -0.10621650392E+03  0.10621650392E+03  0.00000000000E+00 0.  1.
        6    2    1    2  501    0 -0.21868484293E+02 -0.89355341849E+02  0.30146830375E+02  0.19890628154E+03  0.17375922920E+03 0.  0.
       24    2    3    3    0    0 -0.34448749108E+02 -0.12666174597E+03  0.34080614525E+02  0.15906163938E+03  0.83121613480E+02 0.  0.
       -6    2    1    2    0  503  0.21868484293E+02  0.89355341849E+02  0.41985453518E+03  0.46352809185E+03  0.17354496102E+03 0.  0.
      -24    2    5    5    0    0  0.68483831312E+02  0.72449767361E+02  0.19162289244E+03  0.22992466341E+03  0.78784605076E+02 0.  0.
        5    1    3    3  501    0  0.12580264816E+02  0.37306404122E+02 -0.39337841499E+01  0.39844642163E+02  0.47000000000E+01 0. -1.
        4    1    4    4  502    0  0.23716597349E+02 -0.41775083808E+02  0.28830228598E+02  0.56025143445E+02  0.00000000000E+00 0. -1.
       -3    1    4    4    0  502 -0.58165346457E+02 -0.84886662163E+02  0.52503859267E+01  0.10303649593E+03  0.00000000000E+00 0.  1.
       -5    1    5    5    0  503 -0.46615347019E+02  0.16905574488E+02  0.22823164275E+03  0.23360342844E+03  0.47000000000E+01 0.  1.
       11    1    6    6    0    0  0.14654034083E+02 -0.14283000860E+02  0.59764899868E+02  0.63171101658E+02  0.00000000000E+00 0. -1.
      -12    1    6    6    0    0  0.53829797229E+02  0.86732768221E+02  0.13185799257E+03  0.16675356175E+03  0.00000000000E+00 0.  1.
</event>
<event>
12   0  0.1523332E-01  0.2726731E+03  0.7957747E-01  0.1107562E+00
       21   -1    0    0  501  503  0.00000000000E+00  0.00000000000E+00  0.65587456318E+03  0.65587456318E+03  0.00000000000E+00 0.  1.
       21   -1    0    0  503  504  0.00000000000E+00  0.00000000000E+00 -0.11269238169E+03  0.11269238169E+03  0.00000000000E+00 0. -1.
        6    2    1    2  501    0  0.54285221666E+02  0.20298922934E+03  0.27271828276E+03  0.38450789245E+03  0.17122950997E+03 0.  0.
       24    2    3    3    0    0 -0.16348906233E+02  0.48210979862E+02  0.59635989503E+02  0.11179624943E+03  0.79689176363E+02 0.  0.
       -6    2    1    2    0  504 -0.54285221666E+02 -0.20298922934E+03  0.27046389873E+03  0.38405905243E+03  0.17377894785E+03 0.  0.
      -24    2    5    5    0    0 -0.12271704867E+02 -0.50169507200E+02  0.38009077655E+02  0.10267615154E+03  0.80188078408E+02 0.  0.
        5    1    3    3  501    0  0.70634127898E+02  0.15477824948E+03  0.21308229326E+03  0.27271164301E+03  0.47000000000E+01 0. -1.
      -13    1    4    4    0    0 -0.13517291121E+02  0.62364047189E+01  0.67392599650E+02  0.69017189095E+02  0.00000000000E+00 0.  1.
       14    1    4    4    0    0 -0.28316151121E+01  0.41974575143E+02 -0.77566101462E+01  0.42779060339E+02  0.00000000000E+00 0. -1.
       -5    1    5    5    0  504 -0.42013516798E+02 -0.15281972214E+03  0.23245482107E+03  0.28138290088E+03  0.47000000000E+01 0.  1.
        1    1    6    6  502    0 -0.42021651068E+02 -0.33060014027E+02  0.42183010500E+02  0.68104258756E+02  0.00000000000E+00 0. -1.
       -2    1    6    6    0  502  0.29749946200E+02 -0.17109493173E+02 -0.41739328450E+01  0.34571892788E+02  0.00000000000E+00 0.  1.
</event>
<event>
12   0  0.1523332E-01  0.1775760E+03  0.7957747E-01  0.1175705E+00
       21   -1    0    0  504  503  0.00000000000E+00  0.00000000000E+00  0.25241923793E+03  0.25241923793E+03  0.00000000000E+00 0. -1.
       21   -1    0    0  501  504  0.00000000000E+00  0.00000000000E+00 -0.18864047382E+03  0.18864047382E+03  0.00000000000E+00 0. -1.
        6    2    1    2  501    0 -0.35358895664E+02  0.17373847559E+02  0.16011298070E+03  0.23903615033E+03  0.17306071910E+03 0.  0.
       24    2    3    3    0    0 -0.43677314172E+02 -0.50704261640E+02  0.12134826428E+03  0.16011455457E+03  0.80203736936E+02 0.  0.
       -6    2    1    2    0  503  0.35358895664E+02 -0.17373847559E+02 -0.96334216587E+02  0.20202356142E+03  0.17315061652E+03 0.  0.
      -24    2    5    5    0    0  0.69886064307E+02  0.25511380399E+02 -0.22771445452E+02  0.11001899931E+03  0.77786560325E+02 0.  0.
        5    1    3    3  501    0  0.83184185085E+01  0.68078109199E+02  0.38764716419E+02  0.78921595762E+02  0.47000000000E+01 0. -1.
        2    1    4    4  502    0  0.20165349513E+02 -0.31770546905E+02  0.49058138874E+02  0.61828067747E+02  0.00000000000E+00 0. -1.
       -1    1    4    4    0  502 -0.63842663685E+02 -0.18933714735E+02  0.72290125410E+02  0.98286486822E+02  0.00000000000E+00 0.  1.
       -5    1    5    5    0  503 -0.34527168643E+02 -0.42885227958E+02 -0.73562771135E+02  0.92004562107E+02  0.47000000000E+01 0.  1.
       11    1    6    6    0    0 -0.12154183068E+02  0.10130836457E+02 -0.21303301512E+02  0.26536553443E+02  0.00000000000E+00 0. -1.
      -12    1    6    6    0    0  0.82040247375E+02  0.15380543942E+02 -0.14681439408E+01  0.83482445867E+02  0.00000000000E+00 0.  1.
</event>
<event>
12   0  0.1523332E-01  0.1975373E+03  0.7957747E-01  0.1158008E+00
       21   -1    0    0  504  503  0.00000000000E+00  0.00000000000E+00  0.53999557175E+03  0.53999557175E+03  0.00000000000E+00 0.  1.
       21   -1    0    0  501  504  0.00000000000E+00  0.00000000000E+00 -0.88297982774E+02  0.88297982774E+02  0.00000000000E+00 0.  1.
        6    2    1    2  501    0  0.70782157435E+02 -0.64934103733E+02  0.91132407078E+02  0.21716312190E+03  0.17212830754E+03 0.  0.
       24    2    3    3    0    0  0.46785709516E+02  0.30898836211E+02  0.68316973978E+02  0.11566230477E+03  0.74611789396E+02 0.  0.
       -6    2    1    2    0  503 -0.70782157435E+02  0.64934103733E+02  0.36056518190E+03  0.41113043262E+03  0.17261063291E+03 0.  0.
      -24    2    5    5    0    0  0.18382874783E+02  0.16555753542E+01  0.11518984056E+03  0.14245642334E+03  0.81758560221E+02 0.  0.
        5    1    3    3  501    0  0.23996447919E+02 -0.95832939943E+02  0.22815433100E+02  0.10150081713E+03  0.47000000000E+01 0. -1.
        2    1    4    4  502    0  0.15081294891E+02 -0.13673282485E+02  0.56013402484E+02  0.59597863781E+02  0.00000000000E+00 0. -1.
       -1    1    4    4    0  502  0.31704414625E+02  0.44572118696E+02  0.12303571495E+02  0.56064440988E+02  0.00000000000E+00 0.  1.
       -5    1    5    5    0  503 -0.89165032218E+02  0.63278528378E+02  0.24537534134E+03  0.26867400928E+03  0.47000000000E+01 0.  1.
       11    1    6    6    0    0 -0.72794778568E+01 -0.36589059548E+02  0.44256872519E+02  0.57882819918E+02  0.00000000000E+00 0. -1.
      -12    1    6    6    0    0  0.25662352640E+02  0.38244634902E+02  0.70932968038E+02  0.84573603426E+02  0.00000000000E+00 0.  1.
</event>
<event>
12   0  0.1523332E-01  0.1955115E+03  0.7957747E-01  0.1159697E+00
        2   -1    0    0  502    0  0.00000000000E+00  0.00000000000E+00  0.19867249567E+03  0.19867249567E+03  0.00000000000E+00 0. -1.
       -2   -1    0    0    0  501  0.00000000000E+00  0.00000000000E+00 -0.22227986238E+03  0.22227986238E+03  0.00000000000E+00 0.  1.
        6    2    1    2  502    0 -0.86811773766E+02 -0.28355002012E+02 -0.88998824856E+02  0.21533353020E+03  0.17351497975E+03 0.  0.
       24    2    3    3    0    0 -0.26793314121E+02 -0.37008152143E+02 -0.10728528341E+03  0.15182308167E+03  0.97224642376E+02 0.  0.
       -6    2    1    2    0  501  0.86811773766E+02  0.28355002012E+02  0.65391458150E+02  0.20561882785E+03  0.17222882850E+03 0.  0.
      -24    2    5    5    0    0  0.10207296797E+03  0.10873718410E+02  0.99755584882E+02  0.16388775393E+03  0.79817859102E+02 0.  0.
        5    1    3    3  502    0 -0.60018459645E+02  0.86531501312E+01  0.18286458555E+02  0.63510448525E+02  0.47000000000E+01 0. -1.
      -11    1    4    4    0    0 -0.54922495946E+02  0.60432035842E+01 -0.64457423247E+02  0.84898529328E+02  0.00000000000E+00 0.  1.
       12    1    4    4    0    0  0.28129181825E+02 -0.43051355728E+02 -0.42827860165E+02  0.66924552344E+02  0.00000000000E+00 0. -1.
       -5    1    5    5    0  501 -0.15261194202E+02  0.17481283602E+02 -0.34364126732E+02  0.41731073924E+02  0.47000000000E+01 0.  1.
        1    1    6    6  503    0  0.42573886877E+02 -0.25180503511E+02  0.75401954783E+02  0.90177870822E+02  0.00000000000E+00 0. -1.
       -2    1    6    6    0  503  0.59499081090E+02  0.36054221922E+02  0.24353630099E+02  0.73709883109E+02  0.00000000000E+00 0.  1.
</event>
<event>
12   0  0.1523332E-01  0.2570659E+03  0.7957747E-01  0.1116455E+00
       21   -1    0    0  504  503  0.00000000000E+00  0.00000000000E+00  0.65824087586E+03  0.65824087586E+03  0.00000000000E+00 0.  1.
       21   -1    0    0  501  504  0.00000000000E+00  0.00000000000E+00 -0.10771999398E+03  0.10771999398E+03  0.00000000000E+00 0.  1.
        6    2    1    2  501    0  0.97658842329E+02 -0.16072681012E+03  0.17002690798E+03  0.30820778790E+03  0.17524991900E+03 0.  0.
       24    2    3    3    0    0  0.95452231932E+02 -0.18370627307E+03  0.17297714713E+03  0.28446502568E+03  0.90222691496E+02 0.  0.
       -6    2    1    2    0  503 -0.97658842329E+02  0.16072681012E+03  0.38049397390E+03  0.45775308194E+03  0.17144055200E+03 0.  0.
      -24    2    5    5    0    0 -0.13420447501E+03  0.12418210002E+03  0.32818760640E+03  0.38407034864E+03  0.79817871660E+02 0.  0.
        5    1    3    3  501    0  0.22066103969E+01  0.22979462948E+02 -0.29502391543E+01  0.23742762221E+02  0.47000000000E+01 0. -1.
        2    1    4    4  502    0  0.20964074782E+02 -0.87137420056E+02  0.12409339396E+03  0.15307381497E+03  0.00000000000E+00 0. -1.
       -1    1    4    4    0  502  0.74488157151E+02 -0.96568853012E+02  0.48883753173E+02  0.13139121071E+03  0.00000000000E+00 0.  1.
       -5    1    5    5    0  503  0.36545632679E+02  0.36544710098E+02  0.52306367506E+02  0.73682733294E+02  0.47000000000E+01 0.  1.
       11    1    6    6    0    0 -0.90320045736E+02  0.49342981516E+02  0.23607367539E+03  0.25753295071E+03  0.00000000000E+00 0. -1.
      -12    1    6    6    0    0 -0.43884429271E+02  0.74839118505E+02  0.92113931002E+02  0.12653739793E+03  0.00000000000E+00 0.  1.
</event>
<event>
12   0  0.1523332E-01  0.1740296E+03  0.7957747E-01  0.1179118E+00
       21   -1    0    0  501  503  0.00000000000E+00  0.00000000000E+00  0.18997892993E+03  0.18997892993E+03  0.00000000000E+00 0.  1.
       21   -1    0    0  503  504  0.00000000000E+00  0.00000000000E+00 -0.16141647754E+03  0.16141647754E+03  0.00000000000E+00 0.  1.
        6    2    1    2  501    0 -0.94366222800E+01  0.17826237600E+02 -0.11319014326E+02  0.17439728505E+03  0.17285678569E+03 0.  0.
       24    2    3    3    0    0  0.47348754990E+02 -0.12328335318E+01 -0.46311668994E+02  0.10486741273E+03  0.81295627744E+02 0.  0.
       -6    2    1    2    0  504  0.94366222800E+01 -0.17826237600E+02  0.39881466712E+02  0.17699812242E+03  0.17126289547E+03 0.  0.
      -24    2    5    5    0    0 -0.18967394163E+02 -0.21425256880E+02 -0.37571725267E+02  0.94288824041E+02  0.81608480722E+02 0.  0.
        5    1    3    3  501    0 -0.56785377270E+02  0.19059071131E+02  0.34992654667E+02  0.69529872320E+02  0.47000000000E+01 0. -1.
      -11    1    4    4    0    0  0.46617156035E+02 -0.24381822984E+02  0.53193828989E+00  0.52610982572E+02  0.00000000000E+00 0.  1.
       12    1    4    4    0    0  0.73159895496E+00  0.23148989452E+02 -0.46843607283E+02  0.52256430159E+02  0.00000000000E+00 0. -1.
       -5    1    5    5    0  504  0.28404016443E+02  0.35990192804E+01  0.77453191979E+02  0.82709298374E+02  0.47000000000E+01 0.  1.
        3    1    6    6  502    0  0.49506301950E+00 -0.46784672209E+02 -0.25285114058E+01  0.46855565423E+02  0.00000000000E+00 0. -1.
       -4    1    6    6    0  502 -0.19462457183E+02  0.25359415330E+02 -0.35043213861E+02  0.47433258619E+02  0.00000000000E+00 0.  1.
</event>
<event>
12   0  0.1523332E-01  0.2082561E+03  0.7957747E-01  0.1149426E+00
       21   -1    0    0  501  503  0.00000000000E+00  0.00000000000E+00  0.24225467271E+03  0.24225467271E+03  0.00000000000E+00 0.  1.
       21   -1    0    0  503  504  0.00000000000E+00  0.00000000000E+00 -0.31641036670E+03  0.31641036670E+03  0.00000000000E+00 0.  1.
        6    2    1    2  501    0 -0.10072072997E+03  0.55936650430E+02  0.14796717011E+03  0.25546991682E+03  0.17348492921E+03 0.  0.
       24    2    3    3    0    0 -0.63669979076E+02 -0.35799494841E+02  0.76010075638E+02  0.13304364539E+03  0.81164092516E+02 0.  0.
       -6    2    1    2    0  504  0.10072072997E+03 -0.55936650430E+02 -0.22212286411E+03  0.30319512258E+03  0.17121665016E+03 0.  0.
      -24    2    5    5    0    0  0.57799207999E+02 -0.91589147789E+02 -0.98843826073E+02  0.16779508996E+03  0.81582901534E+02 0.  0.
        5    1    3    3  501    0 -0.37050750897E+02  0.91736145271E+02  0.71957094476E+02  0.12242627143E+03  0.47000000000E+01 0. -1.
      -11    1    4    4    0    0 -0.82299152900E+02 -0.37586590768E+02  0.63298507389E+02  0.11042012231E+03  0.00000000000E+00 0.  1.
       12    1    4    4    0    0  0.18629173823E+02  0.17870959274E+01  0.12711568249E+02  0.22623523080E+02  0.00000000000E+00 0. -1.
       -5    1    5    5    0  504  0.42921521975E+02  0.35652497359E+02 -0.12327903803E+03  0.13540003263E+03  0.47000000000E+01 0.  1.
        1    1    6    6  502    0  0.37608272415E+02  0.65300247213E+00 -0.11935635436E+02  0.39462234599E+02  0.00000000000E+00 0. -1.
       -2    1    6    6    0  502  0.20190935584E+02 -0.92242150261E+02 -0.86908190637E+02  0.12833285536E+03  0.00000000000E+00 0.  1.
</event>
<event>
12   0  0.1523332E-01  0.2868984E+03  0.7957747E-01  0.1100002E+00
        1   -1    0    0  502    0  0.00000000000E+00  0.00000000000E+00  0.12745739604E+04  0.12745739604E+04  0.00000000000E+00 0. -1.
       -1   -1    0    0    0  501  0.00000000000E+00  0.00000000000E+00 -0.69849902779E+02  0.69849902779E+02  0.00000000000E+00 0.  1.
        6    2    1    2  502    0  0.69980138672E+02 -0.21639602181E+03  0.42026216693E+03  0.50959100222E+03  0.17702610691E+03 0.  0.
       24    2    3    3    0    0  0.50734139998E+02 -0.32523322108E+02  0.72068963357E+02  0.11533198181E+03  0.66901503021E+02 0.  0.
       -6    2    1    2    0  501 -0.69980138672E+02  0.21639602181E+03  0.78446189074E+03  0.83483286101E+03  0.17274544779E+03 0.  0.
      -24    2    5    5    0    0 -0.77520589399E+02  0.13001745131E+03  0.32738793132E+03  0.36958366948E+03  0.80593124678E+02 0.  0.
        5    1    3    3  502    0  0.19245998674E+02 -0.18387269970E+03  0.34819320357E+03  0.39425902041E+03  0.47000000000E+01 0. -1.
      -13    1    4    4    0    0 -0.51621358465E+01 -0.33675846707E+02  0.29417522289E+02  0.45012230734E+02  0.00000000000E+00 0.  1.
       14    1    4    4    0    0  0.55896275844E+02  0.11525245996E+01  0.42651441067E+02  0.70319751076E+02  0.00000000000E+00 0. -1.
       -5    1    5    5    0  501  0.75404507268E+01  0.86378570501E+02  0.45707395942E+03  0.46524919153E+03  0.47000000000E+01 0.  1.
        3    1    6    6  503    0 -0.46859631094E+01  0.50178358484E+02  0.17934875309E+03  0.18629493054E+03  0.00000000000E+00 0. -1.
       -4    1    6    6    0  503 -0.72834626289E+02  0.79839092825E+02  0.14803917822E+03  0.18328873893E+03  0.00000000000E+00 0.  1.
</event>
<event>
12   0  0.1523332E-01  0.1760696E+03  0.7957747E-01  0.1177144E+00
       21   -1    0    0  504  503  0.00000000000E+00  0.00000000000E+00  0.27626689443E+03  0.27626689443E+03  0.00000000000E+00 0.  1.
       21   -1    0    0  501  504  0.00000000000E+00  0.00000000000E+00 -0.16857626121E+03  0.16857626121E+03  0.00000000000E+00 0.  1.
        6    2    1    2  501    0  0.10360355542E+02  0.26408101279E+02 -0.75301022233E+02  0.19149603780E+03  0.17376928314E+03 0.  0.
       24    2    3    3    0    0  0.48879814510E+02  0.72629934147E+01  0.85687218584E+01  0.97121741252E+02  0.83169840025E+02 0.  0.
       -6    2    1    2    0  503 -0.10360355542E+02 -0.26408101279E+02  0.18299165545E+03  0.25334711784E+03  0.17289907858E+03 0.  0.
      -24    2    5    5    0    0  0.45263597014E+02  0.24987326002E+02  0.12678163328E+03  0.15891634619E+03  0.80670086603E+02 0.  0.
        5    1    3    3  501    0 -0.38519458968E+02  0.19145107864E+02 -0.83869744092E+02  0.94374296545E+02  0.47000000000E+01 0. -1.
      -11    1    4    4    0    0  0.15989441337E+02  0.44081472433E+02 -0.66184741351E+00  0.46896444302E+02  0.00000000000E+00 0.  1.
       12    1    4    4    0    0  0.32890373173E+02 -0.36818479018E+02  0.92305692719E+01  0.50225296950E+02  0.00000000000E+00 0. -1.
       -5    1    5    5    0  503 -0.55623952556E+02 -0.51395427281E+02  0.56210022172E+02  0.94430771658E+02  0.47000000000E+01 0.  1.
        1    1    6    6  502    0  0.47508940305E+02  0.47510316167E+02  0.66535021498E+02  0.94558123061E+02  0.00000000000E+00 0. -1.
       -2    1    6    6    0  502 -0.22453432914E+01 -0.22522990165E+02  0.60246611784E+02  0.64358223126E+02  0.00000000000E+00 0.  1.
</event>
<event>
12   0  0.1523332E-01  0.1971036E+03  0.7957747E-01  0.1158368E+00
       21   -1    0    0  501  503  0.00000000000E+00  0.00000000000E+00  0.47474118697E+03  0.47474118697E+03  0.00000000000E+00 0.  1.
       21   -1    0    0  503  504  0.00000000000E+00  0.00000000000E+00 -0.13492932788E+03  0.13492932788E+03  0.00000000000E+00 0.  1.
        6    2    1    2  501    0  0.71378235169E+02  0.62522443907E+02  0.36112995908E+03  0.41141740689E+03  0.17275857980E+03 0.  0.
       24    2    3    3    0    0  0.30963744223E+02 -0.26695722832E+02  0.11246116147E+03  0.14411332300E+03  0.80310160961E+02 0.  0.
       -6    2    1    2    0  504 -0.71378235169E+02 -0.62522443907E+02 -0.21318099999E+02  0.19825310796E+03  0.17275973194E+03 0.  0.
      -24    2    5    5    0    0  0.18053570681E+02 -0.47787263045E+02  0.21772817843E+02  0.97783756149E+02  0.80486355652E+02 0.  0.
        5    1    3    3  501    0  0.40414490946E+02  0.89218166739E+02  0.24866879762E+03  0.26730408389E+03  0.47000000000E+01 0. -1.
      -13    1    4    4    0    0  0.21049778997E+02 -0.40005203815E+02  0.11820289664E+03  0.12655210114E+03  0.00000000000E+00 0.  1.
       14    1    4    4    0    0  0.99139652257E+01  0.13309480982E+02 -0.57417351727E+01  0.17561221863E+02  0.00000000000E+00 0. -1.
       -5    1    5    5    0  504 -0.89431805849E+02 -0.14735180862E+02 -0.43090917842E+02  0.10046935181E+03  0.47000000000E+01 0.  1.
        1    1    6    6  502    0  0.47476979940E+02 -0.11996535700E+02  0.10021544112E+02  0.49984115871E+02  0.00000000000E+00 0. -1.
       -2    1    6    6    0  502 -0.29423409259E+02 -0.35790727345E+02  0.11751273732E+02  0.47799640278E+02  0.00000000000E+00 0.  1.
</event>
<event>
12   0  0.1523332E-01  0.1881034E+03  0.7957747E-01  0.1166071E+00
       21   -1    0    0  504  503  0.00000000000E+00  0.00000000000E+00  0.32306239156E+03  0.32306239156E+03  0.00000000000E+00 0.  1.
       21   -1    0    0  501  504  0.00000000000E+00  0.00000000000E+00 -0.11940450141E+03  0.11940450141E+03  0.00000000000E+00 0.  1.
        6    2    1    2  501    0 -0.68412931955E+02 -0.88976346440E+01  0.31495479481E+02  0.19072192886E+03  0.17499540497E+03 0.  0.
       24    2    3    3    0    0  0.11474263426E+02  0.43521574153E+02  0.93238593942E+01  0.92521072582E+02  0.80295880217E+02 0.  0.
       -6    2    1    2    0  503  0.68412931955E+02  0.88976346440E+01  0.17216241067E+03  0.25174496412E+03  0.17022377669E+03 0.  0.
      -24    2    5    5    0    0 -0.22870412148E+02  0.23350984446E+02  0.11109581572E+03  0.14087221160E+03  0.80214559187E+02 0.  0.
        5    1    3    3  501    0 -0.79887195381E+02 -0.52419208797E+02  0.22171620086E+02  0.98200856279E+02  0.47000000000E+01 0. -1.
      -13    1    4    4    0    0 -0.34147666514E+02  0.26237663765E+02  0.13292285508E+01  0.43084161553E+02  0.00000000000E+00 0.  1.
       14    1    4    4    0    0  0.45621929940E+02  0.17283910388E+02  0.79946308434E+01  0.49436911029E+02  0.00000000000E+00 0. -1.
       -5    1    5    5    0  503  0.91283344103E+02 -0.14453349802E+02  0.61066594951E+02  0.11087275251E+03  0.47000000000E+01 0.  1.
        1    1    6    6  502    0 -0.37985549085E+02 -0.17013864584E+02  0.69267271064E+02  0.80810447147E+02  0.00000000000E+00 0. -1.
       -2    1    6    6    0  502  0.15115136937E+02  0.40364849029E+02  0.41828544652E+02  0.60061764455E+02  0.00000000000E+00 0.  1.
</event>
<event>
12   0  0.1523332E-01  0.1778045E+03  0.7957747E-01  0.1175488E+00
       21   -1    0    0  501  503  0.00000000000E+00  0.00000000000E+00  0.44239235302E+02  0.44239235302E+02  0.00000000000E+00 0. -1.
       21   -1    0    0  503  504  0.00000000000E+00  0.00000000000E+00 -0.71190678254E+03  0.71190678254E+03  0.00000000000E+00 0. -1.
        6    2    1    2  501    0 -0.10220541764E+02 -0.23607609162E+02 -0.30087510596E+03  0.34852962411E+03  0.17402669569E+03 0.  0.
       24    2    3    3    0    0  0.23203273103E+02 -0.72464329654E+02 -0.14857095257E+03  0.18505860015E+03  0.79899227686E+02 0.  0.
       -6    2    1    2    0  504  0.10220541764E+02  0.23607609162E+02 -0.36679244128E+03  0.40761639373E+03  0.17593365447E+03 0.  0.
      -24    2    5    5    0    0  0.43990559941E+02 -0.23852643468E+02 -0.32550799797E+03  0.33606651626E+03  0.66941232732E+02 0.  0.
        5    1    3    3  501    0 -0.33423814867E+02  0.48856720492E+02 -0.15230415338E+03  0.16347102396E+03  0.47000000000E+01 0. -1.
      -11    1    4    4    0    0  0.11117185712E+02 -0.23356753912E+02  0.22685783102E+01  0.25966829206E+02  0.00000000000E+00 0.  1.
       12    1    4    4    0    0  0.12086087391E+02 -0.49107575742E+02 -0.15083953088E+03  0.15909177094E+03  0.00000000000E+00 0. -1.
       -5    1    5    5    0  504 -0.33770018177E+02  0.47460252630E+02 -0.41284443303E+02  0.71549877472E+02  0.47000000000E+01 0.  1.
        1    1    6    6  502    0  0.20773206398E+02  0.11864896094E+02 -0.34654512398E+02  0.42109821810E+02  0.00000000000E+00 0. -1.
       -2    1    6    6    0  502  0.23217353543E+02 -0.35717539562E+02 -0.29085348557E+03  0.29395669444E+03  0.00000000000E+00 0.  1.
</event>
<event>
12   0  0.1523332E-01  0.1745507E+03  0.7957747E-01  0.1178611E+00
       21   -1    0    0  501  503  0.00000000000E+00  0.00000000000E+00  0.43316678042E+02  0.43316678042E+02  0.00000000000E+00 0. -1.
       21   -1    0    0  503  504  0.00000000000E+00  0.00000000000E+00 -0.82433743104E+03  0.82433743104E+03  0.00000000000E+00 0. -1.
        6    2    1    2  501    0  0.15424182274E+02  0.77052835654E+01 -0.22394563272E+03  0.28393591905E+03  0.17369710108E+03 0.  0.
       24    2    3    3    0    0  0.47462240496E+01 -0.59136676915E+02 -0.89875105208E+02  0.13367327293E+03  0.79191768269E+02 0.  0.
       -6    2    1    2    0  504 -0.15424182274E+02 -0.77052835654E+01 -0.55707512028E+03  0.58371819003E+03  0.17348475131E+03 0.  0.
      -24    2    5    5    0    0 -0.67194226584E+02 -0.25600751252E+02 -0.45632745689E+03  0.46894638630E+03  0.80656696948E+02 0.  0.
        5    1    3    3  501    0  0.10677958225E+02  0.66841960480E+02 -0.13407052751E+03  0.15026264612E+03  0.47000000000E+01 0. -1.
      -11    1    4    4    0    0 -0.25126127540E+02  0.19237887528E+01 -0.46930641897E+02  0.53268268201E+02  0.00000000000E+00 0.  1.
       12    1    4    4    0    0  0.29872351589E+02 -0.61060465667E+02 -0.42944463311E+02  0.80405004733E+02  0.00000000000E+00 0. -1.
       -5    1    5    5    0  504  0.51770044310E+02  0.17895467686E+02 -0.10074766339E+03  0.11477180373E+03  0.47000000000E+01 0.  1.
        3    1    6    6  502    0  0.11356630644E+02 -0.21427806605E+02 -0.18049224305E+03  0.18211417780E+03  0.00000000000E+00 0. -1.
       -4    1    6    6    0  502 -0.78550857228E+02 -0.41729446466E+01 -0.27583521384E+03  0.28683220850E+03  0.00000000000E+00 0.  1.
</event>
<event>
12   0  0.1523332E-01  0.2186087E+03  0.7957747E-01  0.1141658E+00
       21   -1    0    0  501  503  0.00000000000E+00  0.00000000000E+00  0.10550328717E+04  0.10550328717E+04  0.00000000000E+00 0. -1.
       21   -1    0    0  503  504  0.00000000000E+00  0.00000000000E+00 -0.45595835216E+02  0.45595835216E+02  0.00000000000E+00 0.  1.
        6    2    1    2  501    0  0.85139046146E+02  0.10084556403E+03  0.55827041568E+03  0.59928940232E+03  0.17338813611E+03 0.  0.
       24    2    3    3    0    0  0.12129187470E+02 -0.57327370716E+01  0.15040430196E+03  0.17142700568E+03  0.81152835855E+02 0.  0.
       -6    2    1    2    0  504 -0.85139046146E+02 -0.10084556403E+03  0.45116662081E+03  0.50133930461E+03  0.17427361719E+03 0.  0.
      -24    2    5    5    0    0 -0.11894371924E+03 -0.82852032210E+02  0.27965182915E+03  0.32553846027E+03  0.82207517795E+02 0.  0.
        5    1    3    3  501    0  0.73009858676E+02  0.10657830110E+03  0.40786611373E+03  0.42786239664E+03  0.47000000000E+01 0. -1.
        4    1    4    4  502    0 -0.33652111636E+02  0.71024739586E+01  0.70612358230E+02  0.78543076644E+02  0.00000000000E+00 0. -1.
       -3    1    4    4    0  502  0.45781299106E+02 -0.12835211030E+02  0.79791943726E+02  0.92883929039E+02  0.00000000000E+00 0.  1.
       -5    1    5    5    0  504  0.33804673094E+02 -0.17993531816E+02  0.17151479167E+03  0.17580084434E+03  0.47000000000E+01 0.  1.
       11    1    6    6    0    0 -0.32084370862E+02 -0.53151346951E+02  0.17827466238E+03  0.18877586653E+03  0.00000000000E+00 0. -1.
      -12    1    6    6    0    0 -0.86859348378E+02 -0.29700685258E+02  0.10137716676E+03  0.13676259374E+03  0.00000000000E+00 0.  1.
</event>
<event>
12   0  0.1523332E-01  0.4001775E+03  0.7957747E-01  0.1052970E+00
       -1   -1    0    0    0  501  0.00000000000E+00  0.00000000000E+00  0.22679115788E+03  0.22679115788E+03  0.00000000000E+00 0.  1.
        1   -1    0    0  502    0  0.00000000000E+00  0.00000000000E+00 -0.12645531725E+04  0.12645531725E+04  0.00000000000E+00 0. -1.
        6    2    1    2  502    0  0.10320207129E+03 -0.34576930164E+03 -0.23365796647E+02  0.40087092939E+03  0.17304468818E+03 0.  0.
       24    2    3    3    0    0  0.61270466434E+02 -0.30697498833E+03  0.20070516404E+02  0.32895388328E+03  0.99096509415E+02 0.  0.
       -6    2    1    2    0  501 -0.10320207129E+03  0.34576930164E+03 -0.10143962179E+04  0.10904734009E+04  0.17298980819E+03 0.  0.
      -24    2    5    5    0    0 -0.51611447638E+02  0.20055491931E+03 -0.77109042836E+03  0.80243068446E+03  0.80178160739E+02 0.  0.
        5    1    3    3  502    0  0.41931604853E+02 -0.38794313308E+02 -0.43436313051E+02  0.71917046116E+02  0.47000000000E+01 0. -1.
      -13    1    4    4    0    0  0.52344759902E+02 -0.28983126129E+03 -0.82860110686E+01  0.29463671171E+03  0.00000000000E+00 0.  1.
       14    1    4    4    0    0  0.89257065321E+01 -0.17143727040E+02  0.28356527473E+02  0.34317171565E+02  0.00000000000E+00 0. -1.
       -5    1    5    5    0  501 -0.51590623649E+02  0.14521438233E+03 -0.24330578958E+03  0.28804271649E+03  0.47000000000E+01 0.  1.
        1    1    6    6  503    0 -0.21124312051E+02  0.18497927839E+03 -0.61176359461E+03  0.63946717326E+03  0.00000000000E+00 0. -1.
       -2    1    6    6    0  503 -0.30487135587E+02  0.15575640918E+02 -0.15932683375E+03  0.16296351119E+03  0.00000000000E+00 0.  1.
</event>
<event>
12   0  0.1523332E-01  0.2301815E+03  0.7957747E-01  0.1133513E+00
       21   -1    0    0  504  503  0.00000000000E+00  0.00000000000E+00  0.31254280184E+03  0.31254280184E+03  0.00000000000E+00 0.  1.
       21   -1    0    0  501  504  0.00000000000E+00  0.00000000000E+00 -0.32606507206E+03  0.32606507206E+03  0.00000000000E+00 0. -1.
        6    2    1    2  501    0 -0.19055335936E+02 -0.14635556216E+03 -0.23717706800E+03  0.33050939790E+03  0.17663647446E+03 0.  0.
       24    2    3    3    0    0 -0.59720301209E+02 -0.12536621881E+03 -0.23544371794E+03  0.28447368961E+03  0.78792972829E+02 0.  0.
       -6    2    1    2    0  503  0.19055335936E+02  0.14635556216E+03  0.22365479778E+03  0.30809847600E+03  0.15205310237E+03 0.  0.
      -24    2    5    5    0    0  0.63714303475E+02  0.83978755351E+02  0.15945735203E+03  0.20795512150E+03  0.81894698387E+02 0.  0.
        5    1    3    3  501    0  0.40664965273E+02 -0.20989343352E+02 -0.17333500545E+01  0.46035708286E+02  0.47000000000E+01 0. -1.
        4    1    4    4  502    0 -0.29022356888E+02 -0.11909532669E+03 -0.21361635914E+03  0.24628833292E+03  0.00000000000E+00 0. -1.
       -3    1    4    4    0  502 -0.30697944321E+02 -0.62708921185E+01 -0.21827358802E+02  0.38185356693E+02  0.00000000000E+00 0.  1.
       -5    1    5    5    0  503 -0.44658967539E+02  0.62376806813E+02  0.64197445757E+02  0.10014335450E+03  0.47000000000E+01 0.  1.
       11    1    6    6    0    0  0.70220116910E+01 -0.12626538971E+02  0.18020976232E+01  0.14559728378E+02  0.00000000000E+00 0. -1.
      -12    1    6    6    0    0  0.56692291784E+02  0.96605294323E+02  0.15765525440E+03  0.19339539312E+03  0.00000000000E+00 0.  1.
</event>
<event>
12   0  0.1523332E-01  0.1972316E+03  0.7957747E-01  0.1158262E+00
       -2   -1    0    0    0  501  0.00000000000E+00  0.00000000000E+00  0.87703981221E+02  0.87703981221E+02  0.00000000000E+00 0.  1.
        2   -1    0    0  502    0  0.00000000000E+00  0.00000000000E+00 -0.47352718041E+03  0.47352718041E+03  0.00000000000E+00 0. -1.
        6    2    1    2  502    0 -0.65559692281E+02 -0.69451679386E+02 -0.12171386677E+03  0.23121903566E+03  0.17183238363E+03 0.  0.
       24    2    3    3    0    0 -0.11059280879E+03 -0.64314327801E+02 -0.99120221367E+02  0.18035709727E+03  0.79603782154E+02 0.  0.
       -6    2    1    2    0  501  0.65559692281E+02  0.69451679386E+02 -0.26410933242E+03  0.33001212598E+03  0.17329932141E+03 0.  0.
      -24    2    5    5    0    0 -0.19961041008E+02  0.74472641644E+02 -0.14115060666E+03  0.18007899380E+03  0.80995880983E+02 0.  0.
        5    1    3    3  502    0  0.45033116511E+02 -0.51373515845E+01 -0.22593645407E+02  0.50861938390E+02  0.47000000000E+01 0. -1.
        2    1    4    4  503    0 -0.67211868296E+02 -0.78128548364E+02 -0.54387553950E+02  0.11653116036E+03  0.00000000000E+00 0. -1.
       -1    1    4    4    0  503 -0.43380940496E+02  0.13814220563E+02 -0.44732667417E+02  0.63825936909E+02  0.00000000000E+00 0.  1.
       -5    1    5    5    0  501  0.85520733289E+02 -0.50209622580E+01 -0.12295872575E+03  0.14993313217E+03  0.47000000000E+01 0.  1.
       13    1    6    6    0    0  0.15271147105E+02  0.89107839748E+01 -0.85068193435E+02  0.86886175766E+02  0.00000000000E+00 0. -1.
      -14    1    6    6    0    0 -0.35232188113E+02  0.65561857669E+02 -0.56082413230E+02  0.93192818038E+02  0.00000000000E+00 0.  1.
</event>
<event>
12   0  0.1523332E-01  0.1829323E+03  0.7957747E-01  0.1170714E+00
       -1   -1    0    0    0  501  0.00000000000E+00  0.00000000000E+00  0.12504547584E+03  0.12504547584E+03  0.00000000000E+00 0. -1.
        1   -1    0    0  502    0  0.00000000000E+00  0.00000000000E+00 -0.30460168005E+03  0.30460168005E+03  0.00000000000E+00 0.  1.
        6    2    1    2  502    0 -0.55402393307E+02 -0.23255222485E+02 -0.16455827774E+03  0.24592523445E+03  0.17259653417E+03 0.  0.
       24    2    3    3    0    0 -0.33205068329E+02  0.24539882509E+02 -0.21401846588E+02  0.93304963589E+02  0.80888780413E+02 0.  0.
       -6    2    1    2    0  501  0.55402393307E+02  0.23255222485E+02 -0.14997926470E+02  0.18372192145E+03  0.17296987040E+03 0.  0.
      -24    2    5    5    0    0  0.37750831063E+02 -0.33214890779E+02 -0.58898395490E+02  0.10989921138E+03  0.77977313722E+02 0.  0.
        5    1    3    3  502    0 -0.22197324978E+02 -0.47795104994E+02 -0.14315643115E+03  0.15262027086E+03  0.47000000000E+01 0. -1.
        2    1    4    4  503    0 -0.59381390086E+02  0.83529083645E+01 -0.15924931882E+02  0.62044532572E+02  0.00000000000E+00 0. -1.
       -1    1    4    4    0  503  0.26176321757E+02  0.16186974145E+02 -0.54769147060E+01  0.31260431017E+02  0.00000000000E+00 0.  1.
       -5    1    5    5    0  501  0.17651562244E+02  0.56470113264E+02  0.43900469020E+02  0.73822710068E+02  0.47000000000E+01 0.  1.
       13    1    6    6    0    0 -0.10538927384E+02  0.53646085710E+01  0.11307894244E+02  0.16362044119E+02  0.00000000000E+00 0. -1.
      -14    1    6    6    0    0  0.48289758446E+02 -0.38579499350E+02 -0.70206289735E+02  0.93537167261E+02  0.00000000000E+00 0.  1.
</event>
<event>
12   0  0.1523332E-01  0.2025818E+03  0.7957747E-01  0.1153897E+00
       21   -1    0    0  501  503  0.00000000000E+00  0.00000000000E+00  0.10670587217E+03  0.10670587217E+03  0.00000000000E+00 0.  1.
       21   -1    0    0  503  504  0.00000000000E+00  0.00000000000E+00 -0.38714434536E+03  0.38714434536E+03  0.00000000000E+00 0.  1.
        6    2    1    2  501    0 -0.23185320319E+02 -0.10307589256E+03 -0.11560344602E+03  0.23324563930E+03  0.17285014554E+03 0.  0.
       24    2    3    3    0    0 -0.24204157638E+02  0.13095881552E+02 -0.41767344045E+02  0.95511187964E+02  0.81366655561E+02 0.  0.
       -6    2    1    2    0  504  0.23185320319E+02  0.10307589256E+03 -0.16483502717E+03  0.26060457823E+03  0.17199407346E+03 0.  0.
      -24    2    5    5    0    0  0.33735983899E+01  0.10804918083E+03 -0.18676053142E+03  0.23027215896E+03  0.80372659873E+02 0.  0.
        5    1    3    3  501    0  0.10188373188E+01 -0.11617177411E+03 -0.73836101974E+02  0.13773445133E+03  0.47000000000E+01 0. -1.
        4    1    4    4  502    0  0.26305896016E+02  0.18871426811E+02 -0.49739663118E+01  0.32754713492E+02  0.00000000000E+00 0. -1.
       -3    1    4    4    0  502 -0.50510053654E+02 -0.57755452592E+01 -0.36793377733E+02  0.62756474472E+02  0.00000000000E+00 0.  1.
       -5    1    5    5    0  504  0.19811721930E+02 -0.49732882717E+01  0.21925504246E+02  0.30332419265E+02  0.47000000000E+01 0.  1.
       13    1    6    6    0    0  0.86055490913E+01  0.14785232162E+02  0.42650248634E+01  0.17630910423E+02  0.00000000000E+00 0. -1.
      -14    1    6    6    0    0 -0.52319507014E+01  0.93263948665E+02 -0.19102555628E+03  0.21264124854E+03  0.00000000000E+00 0.  1.
</event>
<event>
12   0  0.1523332E-01  0.2048758E+03  0.7957747E-01  0.1152070E+00
       21   -1    0    0  501  503  0.00000000000E+00  0.00000000000E+00  0.91654765484E+02  0.91654765484E+02  0.00000000000E+00 0.  1.
       21   -1    0    0  503  504  0.00000000000E+00  0.00000000000E+00 -0.53211174093E+03  0.53211174093E+03  0.00000000000E+00 0. -1.
        6    2    1    2  501    0  0.10888105966E+03 -0.14878030385E+02 -0.10370275880E+03  0.22958699103E+03  0.17285682899E+03 0.  0.
       24    2    3    3    0    0 -0.60760698187E+01  0.13600577419E+02 -0.65996719089E+02  0.10520850354E+03  0.80569026035E+02 0.  0.
       -6    2    1    2    0  504 -0.10888105966E+03  0.14878030385E+02 -0.33675421664E+03  0.39417951538E+03  0.17290936058E+03 0.  0.
      -24    2    5    5    0    0  0.33066621513E+01  0.25685188538E+02 -0.10011238953E+03  0.13202627025E+03  0.82083997064E+02 0.  0.
        5    1    3    3  501    0  0.11495712948E+03 -0.28478607804E+02 -0.37706039712E+02  0.12437848749E+03  0.47000000000E+01 0. -1.
        4    1    4    4  502    0  0.16800510773E+02 -0.16491848680E+02 -0.63039838698E+02  0.67292343533E+02  0.00000000000E+00 0. -1.
       -3    1    4    4    0  502 -0.22876580592E+02  0.30092426099E+02 -0.29568803913E+01  0.37916160008E+02  0.00000000000E+00 0.  1.
       -5    1    5    5    0  504 -0.11218772181E+03 -0.10807158152E+02 -0.23664182712E+03  0.26215324513E+03  0.47000000000E+01 0.  1.
       13    1    6    6    0    0 -0.12350357649E+02  0.33086639059E+02 -0.10753387679E+03  0.11318476786E+03  0.00000000000E+00 0. -1.
      -14    1    6    6    0    0  0.15657019800E+02 -0.74014505217E+01  0.74214872665E+01  0.18841502384E+02  0.00000000000E+00 0.  1.
</event>
<event>
12   0  0.1523332E-01  0.1902073E+03  0.7957747E-01  0.1164228E+00
       21   -1    0    0  504  503  0.00000000000E+00  0.00000000000E+00  0.18739418142E+03  0.18739418142E+03  0.00000000000E+00 0. -1.
       21   -1    0    0  501  504  0.00000000000E+00  0.00000000000E+00 -0.19509972814E+03  0.19509972814E+03  0.00000000000E+00 0. -1.
        6    2    1    2  501    0  0.78326479598E+02  0.58920497693E+01  0.16607864619E+02  0.19073893098E+03  0.17301955083E+03 0.  0.
       24    2    3    3    0    0 -0.98142059285E+01 -0.32156553947E+02 -0.18332500718E+02  0.88467743350E+02  0.79750225273E+02 0.  0.
       -6    2    1    2    0  503 -0.78326479598E+02 -0.58920497693E+01 -0.24313411347E+02  0.19175497858E+03  0.17323127946E+03 0.  0.
      -24    2    5    5    0    0 -0.13433616523E+02 -0.45216151467E+01  0.47846783685E+02  0.94584275606E+02  0.80349010115E+02 0.  0.
        5    1    3    3  501    0  0.88140685526E+02  0.38048603716E+02  0.34940365337E+02  0.10227118763E+03  0.47000000000E+01 0. -1.
        2    1    4    4  502    0  0.23492054775E+02 -0.44336490177E+02 -0.44095001535E+01  0.50369084669E+02  0.00000000000E+00 0. -1.
       -1    1    4    4    0  502 -0.33306260703E+02  0.12179936230E+02 -0.13923000564E+02  0.38098658681E+02  0.00000000000E+00 0.  1.
       -5    1    5    5    0  503 -0.64892863075E+02 -0.13704346226E+01 -0.72160195032E+02  0.97170702973E+02  0.47000000000E+01 0.  1.
       13    1    6    6    0    0 -0.33310307763E+02  0.32947967894E+01  0.60943069093E+02  0.69530496616E+02  0.00000000000E+00 0. -1.
      -14    1    6    6    0    0  0.19876691240E+02 -0.78164119361E+01 -0.13096285408E+02  0.25053778990E+02  0.00000000000E+00 0.  1.
</event>
<event>
12   0  0.1523332E-01  0.3337915E+03  0.7957747E-01  0.1078096E+00
        2   -1    0    0  502    0  0.00000000000E+00  0.00000000000E+00  0.12342198881E+04  0.12342198881E+04  0.00000000000E+00 0.  1.
       -2   -1    0    0    0  501  0.00000000000E+00  0.00000000000E+00 -0.15781715897E+03  0.15781715897E+03  0.00000000000E+00 0. -1.
        6    2    1    2  502    0  0.17947637808E+03 -0.21721314730E+03  0.85834164925E+02  0.34774846625E+03  0.18484634230E+03 0.  0.
       24    2    3    3    0    0  0.19610732522E+03 -0.14727965403E+03  0.96587374649E+02  0.27491301195E+03  0.78093941516E+02 0.  0.
       -6    2    1    2    0  501 -0.17947637808E+03  0.21721314730E+03  0.99056856415E+03  0.10442885808E+04  0.17297178382E+03 0.  0.
      -24    2    5    5    0    0 -0.61554149791E+02  0.50992945648E+02  0.50023948820E+03  0.51327116101E+03  0.82574483426E+02 0.  0.
        5    1    3    3  502    0 -0.16630947142E+02 -0.69933493273E+02 -0.10753209724E+02  0.72835454303E+02  0.47000000000E+01 0. -1.
        2    1    4    4  503    0  0.85805422614E+02 -0.75768266433E+02  0.85723045494E+02  0.14300993419E+03  0.00000000000E+00 0. -1.
       -1    1    4    4    0  503  0.11030190261E+03 -0.71511387594E+02  0.10864329155E+02  0.13190307776E+03  0.00000000000E+00 0.  1.
       -5    1    5    5    0  501 -0.11792222829E+03  0.16622020165E+03  0.49032907596E+03  0.53101741976E+03  0.47000000000E+01 0.  1.
       11    1    6    6    0    0 -0.16901678847E+02  0.88271734197E+01  0.15270538934E+02  0.24428980694E+02  0.00000000000E+00 0. -1.
      -12    1    6    6    0    0 -0.44652470945E+02  0.42165772228E+02  0.48496894926E+03  0.48884218032E+03  0.00000000000E+00 0.  1.
</event>
<event>
12   0  0.1523332E-01  0.1907963E+03  0.7957747E-01  0.1163717E+00
       21   -1    0    0  501  503  0.00000000000E+00  0.00000000000E+00  0.34758735250E+03  0.34758735250E+03  0.00000000000E+00 0. -1.
       21   -1    0    0  503  504  0.00000000000E+00  0.00000000000E+00 -0.13507716876E+03  0.13507716876E+03  0.00000000000E+00 0. -1.
        6    2    1    2  501    0 -0.51279484327E+02 -0.63638880640E+02  0.22248440465E+03  0.29309133556E+03  0.17240570764E+03 0.  0.
       24    2    3    3    0    0 -0.62231164665E+02  0.18937236791E+02  0.95316305734E+02  0.14099738482E+03  0.81016835247E+02 0.  0.
       -6    2    1    2    0  504  0.51279484327E+02  0.63638880640E+02 -0.99742209155E+01  0.18957318570E+03  0.17076010954E+03 0.  0.
      -24    2    5    5    0    0  0.19782844911E+02  0.29659485392E+02 -0.70328879039E+02  0.11334056569E+03  0.81417974536E+02 0.  0.
        5    1    3    3  501    0  0.10951680338E+02 -0.82576117431E+02  0.12716809891E+03  0.15209395075E+03  0.47000000000E+01 0. -1.
      -13    1    4    4    0    0 -0.59543902738E+02 -0.11401172785E+02  0.92247502837E+02  0.11038598133E+03  0.00000000000E+00 0.  1.
       14    1    4    4    0    0 -0.26872619266E+01  0.30338409576E+02  0.30688028968E+01  0.30611403488E+02  0.00000000000E+00 0. -1.
       -5    1    5    5    0  504  0.31496639416E+02  0.33979395248E+02  0.60354658123E+02  0.76232620007E+02  0.47000000000E+01 0.  1.
        1    1    6    6  502    0  0.45700461012E+00  0.48508859231E+02 -0.71402863665E+02  0.86323155739E+02  0.00000000000E+00 0. -1.
       -2    1    6    6    0  502  0.19325840301E+02 -0.18849373839E+02  0.10739846267E+01  0.27017409950E+02  0.00000000000E+00 0.  1.
</event>
<event>
12   0  0.1523332E-01  0.1815827E+03  0.7957747E-01  0.1171954E+00
       21   -1    0    0  504  503  0.00000000000E+00  0.00000000000E+00  0.58323025241E+03  0.58323025241E+03  0.00000000000E+00 0. -1.
       21   -1    0    0  501  504  0.00000000000E+00  0.00000000000E+00 -0.72859488595E+02  0.72859488595E+02  0.00000000000E+00 0. -1.
        6    2    1    2  501    0  0.15549083776E+02 -0.27151293212E+02  0.81427200687E+02  0.19029488290E+03  0.16912358415E+03 0.  0.
       24    2    3    3    0    0  0.33985673999E+01  0.30981637685E+01 -0.20197391588E+02  0.83466457601E+02  0.80855216520E+02 0.  0.
       -6    2    1    2    0  503 -0.15549083776E+02  0.27151293212E+02  0.42894356313E+03  0.46579485811E+03  0.17886671788E+03 0.  0.
      -24    2    5    5    0    0 -0.45978938855E+02 -0.44812336275E+02  0.27295529984E+03  0.29126930602E+03  0.78809927150E+02 0.  0.
        5    1    3    3  501    0  0.12150516376E+02 -0.30249456981E+02  0.10162459228E+03  0.10682842529E+03  0.47000000000E+01 0. -1.
        2    1    4    4  502    0 -0.12434936596E+01  0.41874027170E+02 -0.11774236408E+02  0.43515664661E+02  0.00000000000E+00 0. -1.
       -1    1    4    4    0  502  0.46420610596E+01 -0.38775863401E+02 -0.84231551805E+01  0.39950792941E+02  0.00000000000E+00 0.  1.
       -5    1    5    5    0  503  0.30429855079E+02  0.71963629487E+02  0.15598826328E+03  0.17452555209E+03  0.47000000000E+01 0.  1.
       13    1    6    6    0    0 -0.48015886051E+02 -0.24371728630E+02  0.75425282345E+02  0.92674050772E+02  0.00000000000E+00 0. -1.
      -14    1    6    6    0    0  0.20369471969E+01 -0.20440607645E+02  0.19753001750E+03  0.19859525525E+03  0.00000000000E+00 0.  1.
</event>
<event>
12   0  0.1523332E-01  0.1828685E+03  0.7957747E-01  0.1170773E+00
       21   -1    0    0  504  503  0.00000000000E+00  0.00000000000E+00  0.14603454917E+03  0.14603454917E+03  0.00000000000E+00 0. -1.
       21   -1    0    0  501  504  0.00000000000E+00  0.00000000000E+00 -0.27827688157E+03  0.27827688157E+03  0.00000000000E+00 0. -1.
        6    2    1    2  501    0  0.43041357093E+02  0.27499002218E+02  0.25827658834E+02  0.18468336185E+03  0.17559078176E+03 0.  0.
       24    2    3    3    0    0  0.22040984943E+02 -0.48210440771E+02 -0.64949907324E+01  0.99596470594E+02  0.84066761765E+02 0.  0.
       -6    2    1    2    0  503 -0.43041357093E+02 -0.27499002218E+02 -0.15806999124E+03  0.23962806889E+03  0.17270418560E+03 0.  0.
      -24    2    5    5    0    0 -0.96287111940E+02 -0.17885636867E+01 -0.11640770298E+03  0.16714377182E+03  0.71497414349E+02 0.  0.
        5    1    3    3  501    0  0.21000372150E+02  0.75709442989E+02  0.32322649566E+02  0.85086891253E+02  0.47000000000E+01 0. -1.
      -13    1    4    4    0    0 -0.25678062867E+02 -0.40301888278E+01  0.16306666084E+02  0.30684078826E+02  0.00000000000E+00 0.  1.
       14    1    4    4    0    0  0.47719047810E+02 -0.44180251944E+02 -0.22801656817E+02  0.68912391769E+02  0.00000000000E+00 0. -1.
       -5    1    5    5    0  503  0.53245754847E+02 -0.25710438531E+02 -0.41662288255E+02  0.72484297067E+02  0.47000000000E+01 0.  1.
        3    1    6    6  502    0 -0.23321316250E+02 -0.33042029411E+02 -0.35764398036E+02  0.53988440115E+02  0.00000000000E+00 0. -1.
       -4    1    6    6    0  502 -0.72965795690E+02  0.31253465724E+02 -0.80643304949E+02  0.11315533171E+03  0.00000000000E+00 0.  1.
</event>
<event>
12   0  0.1523332E-01  0.1824366E+03  0.7957747E-01  0.1171168E+00
       21   -1    0    0  501  503  0.00000000000E+00  0.00000000000E+00  0.18408741273E+03  0.18408741273E+03  0.00000000000E+00 0.  1.
       21   -1    0    0  503  504  0.00000000000E+00  0.00000000000E+00 -0.19998223595E+03  0.19998223595E+03  0.00000000000E+00 0.  1.
        6    2    1    2  501    0  0.26692650249E+02  0.48542051428E+02 -0.75306077338E+02  0.19736796021E+03  0.17382254773E+03 0.  0.
       24    2    3    3    0    0  0.34037206855E+02 -0.11390672602E+02  0.12376715202E+02  0.90802318328E+02  0.82483932143E+02 0.  0.
       -6    2    1    2    0  504 -0.26692650249E+02 -0.48542051428E+02  0.59411254113E+02  0.18670168848E+03  0.16810411961E+03 0.  0.
      -24    2    5    5    0    0 -0.16389194736E+02  0.94607859578E+00 -0.28221627135E+02  0.85425590190E+02  0.78940296758E+02 0.  0.
        5    1    3    3  501    0 -0.73445566062E+01  0.59932724029E+02 -0.87682792539E+02  0.10656564188E+03  0.47000000000E+01 0. -1.
      -13    1    4    4    0    0  0.44949650319E+02  0.19428427177E+02 -0.11520594213E+02  0.50305655123E+02  0.00000000000E+00 0.  1.
       14    1    4    4    0    0 -0.10912443463E+02 -0.30819099778E+02  0.23897309415E+02  0.40496663205E+02  0.00000000000E+00 0. -1.
       -5    1    5    5    0  504 -0.10303455513E+02 -0.49488130023E+02  0.87632881248E+02  0.10127609829E+03  0.47000000000E+01 0.  1.
        1    1    6    6  502    0 -0.38346906578E+02 -0.22961716471E+02 -0.28415645220E+02  0.52963898655E+02  0.00000000000E+00 0. -1.
       -2    1    6    6    0  502  0.21957711843E+02  0.23907795066E+02  0.19401808519E+00  0.32461691535E+02  0.00000000000E+00 0.  1.
</event>
<event>
12   0  0.1523332E-01  0.1918228E+03  0.7957747E-01  0.1162831E+00
       21   -1    0    0  504  503  0.00000000000E+00  0.00000000000E+00  0.11353941938E+03  0.11353941938E+03  0.00000000000E+00 0. -1.
       21   -1    0    0  501  504  0.00000000000E+00  0.00000000000E+00 -0.48797394635E+03  0.48797394635E+03  0.00000000000E+00 0. -1.
        6    2    1    2  501    0  0.19961447851E+02  0.79383813318E+02 -0.36152709069E+03  0.40925678535E+03  0.17346189736E+03 0.  0.
       24    2    3    3    0    0  0.65700102923E+02  0.20816745896E+02 -0.27848367498E+03  0.29772013287E+03  0.79588189149E+02 0.  0.
       -6    2    1    2    0  503 -0.19961447851E+02 -0.79383813318E+02 -0.12907436281E+02  0.19225658037E+03  0.17348124270E+03 0.  0.
      -24    2    5    5    0    0 -0.25868457460E+02 -0.10473241606E+03 -0.53100658698E+02  0.14414182638E+03  0.79492956241E+02 0.  0.
        5    1    3    3  501    0 -0.45738655072E+02  0.58567067422E+02 -0.83043415710E+02  0.11153665248E+03  0.47000000000E+01 0. -1.
        2    1    4    4  502    0  0.36430543611E+02  0.51082848758E+02 -0.15317693903E+03  0.16552889958E+03  0.00000000000E+00 0. -1.
       -1    1    4    4    0  502  0.29269559312E+02 -0.30266102862E+02 -0.12530673595E+03  0.13219123329E+03  0.00000000000E+00 0.  1.
       -5    1    5    5    0  503  0.59070096086E+01  0.25348602746E+02  0.40193222417E+02  0.48114753995E+02  0.47000000000E+01 0.  1.
       13    1    6    6    0    0 -0.20307954243E+02 -0.10073502163E+02  0.15190067502E+02  0.27287847150E+02  0.00000000000E+00 0. -1.
      -14    1    6    6    0    0 -0.55605032163E+01 -0.94658913901E+02 -0.68290726200E+02  0.11685397923E+03  0.00000000000E+00 0.  1.
</event>
<event>
12   0  0.1523332E-01  0.1918172E+03  0.7957747E-01  0.1162836E+00
       21   -1    0    0  501  503  0.00000000000E+00  0.00000000000E+00  0.10216266199E+03  0.10216266199E+03  0.00000000000E+00 0.  1.
       21   -1    0    0  503  504  0.00000000000E+00  0.00000000000E+00 -0.35263069075E+03  0.35263069075E+03  0.00000000000E+00 0.  1.
        6    2    1    2  501    0 -0.57987501985E+02  0.54872988489E+02 -0.19163198552E+03  0.27113954337E+03  0.17441398699E+03 0.  0.
       24    2    3    3    0    0 -0.39309574510E+02 -0.17304497671E+02 -0.35134136996E+02  0.97726391986E+02  0.80444712818E+02 0.  0.
       -6    2    1    2    0  504  0.57987501985E+02 -0.54872988489E+02 -0.58836043246E+02  0.18365380937E+03  0.15457505121E+03 0.  0.
      -24    2    5    5    0    0  0.88347574552E+02 -0.13627470715E+02 -0.53786090699E+02  0.13197674711E+03  0.80832644012E+02 0.  0.
        5    1    3    3  501    0 -0.18677927475E+02  0.72177486160E+02 -0.15649784852E+03  0.17341315139E+03  0.47000000000E+01 0. -1.
        4    1    4    4  502    0 -0.22980618650E+02  0.15249932437E+02  0.18272160051E+02  0.33083849622E+02  0.00000000000E+00 0. -1.
       -3    1    4    4    0  502 -0.16328955860E+02 -0.32554430107E+02 -0.53406297046E+02  0.64642542364E+02  0.00000000000E+00 0.  1.
       -5    1    5    5    0  504 -0.30360072567E+02 -0.41245517774E+02 -0.50499525472E+01  0.51677062256E+02  0.47000000000E+01 0.  1.
       13    1    6    6    0    0  0.19265314733E+02  0.19539430172E+02 -0.47794459873E+02  0.55111269970E+02  0.00000000000E+00 0. -1.
      -14    1    6    6    0    0  0.69082259818E+02 -0.33166900887E+02 -0.59916308263E+01  0.76865477140E+02  0.00000000000E+00 0.  1.
</event>
<event>
12   0  0.1523332E-01  0.1882216E+03  0.7957747E-01  0.1165967E+00
       21   -1    0    0  504  503  0.00000000000E+00  0.00000000000E+00  0.87211737636E+02  0.87211737636E+02  0.00000000000E+00 0. -1.
       21   -1    0    0  501  504  0.00000000000E+00  0.00000000000E+00 -0.47616580323E+03  0.47616580323E+03  0.00000000000E+00 0.  1.
        6    2    1    2  501    0 -0.11153804972E+02 -0.73560819759E+02 -0.30336378962E+03  0.35660938814E+03  0.17206122541E+03 0.  0.
       24    2    3    3    0    0 -0.27914920645E+01  0.29395433740E+02 -0.13419006911E+03  0.15833746345E+03  0.78688587038E+02 0.  0.
       -6    2    1    2    0  503  0.11153804972E+02  0.73560819759E+02 -0.85590275979E+02  0.20676815273E+03  0.17289237135E+03 0.  0.
      -24    2    5    5    0    0 -0.37341318416E+02 -0.22646852139E+01 -0.72687975175E+02  0.11571957469E+03  0.81902230563E+02 0.  0.
        5    1    3    3  501    0 -0.83623129072E+01 -0.10295625350E+03 -0.16917372050E+03  0.19827192469E+03  0.47000000000E+01 0. -1.
        2    1    4    4  502    0 -0.59554896565E+01  0.49252784757E+02 -0.45234743497E+02  0.67137818572E+02  0.00000000000E+00 0. -1.
       -1    1    4    4    0  502  0.31639975920E+01 -0.19857351016E+02 -0.88955325616E+02  0.91199644877E+02  0.00000000000E+00 0.  1.
       -5    1    5    5    0  503  0.48495123388E+02  0.75825504973E+02 -0.12902300804E+02  0.91048578038E+02  0.47000000000E+01 0.  1.
       13    1    6    6    0    0 -0.29807374469E+02  0.36846069607E+02 -0.53614022100E+02  0.71558198579E+02  0.00000000000E+00 0. -1.
      -14    1    6    6    0    0 -0.75339439474E+01 -0.39110754821E+02 -0.19073953075E+02  0.44161376111E+02  0.00000000000E+00 0.  1.
</event>
<event>
12   0  0.1523332E-01  0.1814230E+03  0.7957747E-01  0.1172101E+00
       -1   -1    0    0    0  501  0.00000000000E+00  0.00000000000E+00  0.12703694292E+03  0.12703694292E+03  0.00000000000E+00 0.  1.
        1   -1    0    0  502    0  0.00000000000E+00  0.00000000000E+00 -0.31007373335E+03  0.31007373335E+03  0.00000000000E+00 0. -1.
        6    2    1    2  502    0  0.46457144654E+02  0.33739867623E+02 -0.32779612509E+01  0.18234159175E+03  0.17303486959E+03 0.  0.
       24    2    3    3    0    0  0.21003398867E+02  0.32166552232E+02  0.58263111358E+02  0.11556014137E+03  0.92107145666E+02 0.  0.
       -6    2    1    2    0  501 -0.46457144654E+02 -0.33739867623E+02 -0.17975882918E+03  0.25476908453E+03  0.17116484687E+03 0.  0.
      -24    2    5    5    0    0 -0.49518689046E+02  0.38162291969E+02 -0.13592508898E+03  0.17037251831E+03  0.81502785777E+02 0.  0.
        5    1    3    3  502    0  0.25453745788E+02  0.15733153911E+01 -0.61541072609E+02  0.66781450372E+02  0.47000000000E+01 0. -1.
      -11    1    4    4    0    0  0.46026732704E+02 -0.13027726652E+02  0.23520815565E+02  0.53304882984E+02  0.00000000000E+00 0.  1.
       12    1    4    4    0    0 -0.25023333837E+02  0.45194278885E+02  0.34742295794E+02  0.62255258390E+02  0.00000000000E+00 0. -1.
       -5    1    5    5    0  501  0.30615443919E+01 -0.71902159592E+02 -0.43833740206E+02  0.84396566213E+02  0.47000000000E+01 0.  1.
        3    1    6    6  503    0  0.14221806903E+02  0.24693770619E+02 -0.78558141843E+02  0.83566881890E+02  0.00000000000E+00 0. -1.
       -4    1    6    6    0  503 -0.63740495949E+02  0.13468521349E+02 -0.57366947134E+02  0.86805636422E+02  0.00000000000E+00 0.  1.
</event>
<event>
12   0  0.1523332E-01  0.1899267E+03  0.7957747E-01  0.1164473E+00
        2   -1    0    0  502    0  0.00000000000E+00  0.00000000000E+00  0.67132638361E+03  0.67132638361E+03  0.00000000000E+00 0. -1.
       -2   -1    0    0    0  501  0.00000000000E+00  0.00000000000E+00 -0.74677856132E+02  0.74677856132E+02  0.00000000000E+00 0.  1.
        6    2    1    2  502    0  0.64301143764E+02  0.43981516863E+02  0.10030566453E+03  0.21441256303E+03  0.17274984785E+03 0.  0.
       24    2    3    3    0    0 -0.18865239788E+02  0.49345629837E+02  0.19555716679E+02  0.98274433460E+02  0.80526702160E+02 0.  0.
       -6    2    1    2    0  501 -0.64301143764E+02 -0.43981516863E+02  0.49634286295E+03  0.53159167672E+03  0.17367919345E+03 0.  0.
      -24    2    5    5    0    0  0.62801822657E+01 -0.49321067075E+02  0.40501994147E+03  0.41595344615E+03  0.80648050383E+02 0.  0.
        5    1    3    3  502    0  0.83166383552E+02 -0.53641129745E+01  0.80749947851E+02  0.11613812957E+03  0.47000000000E+01 0. -1.
      -11    1    4    4    0    0  0.23153068515E+02 -0.27899789291E+01 -0.96293778146E+01  0.25230407868E+02  0.00000000000E+00 0.  1.
       12    1    4    4    0    0 -0.42018308303E+02  0.52135608767E+02  0.29185094493E+02  0.73044025592E+02  0.00000000000E+00 0. -1.
       -5    1    5    5    0  501 -0.70581326029E+02  0.53395502121E+01  0.91322921479E+02  0.11563823056E+03  0.47000000000E+01 0.  1.
        1    1    6    6  503    0 -0.12810734513E+02 -0.59240126562E+02  0.18048086501E+03  0.19038605555E+03  0.00000000000E+00 0. -1.
       -2    1    6    6    0  503  0.19090916778E+02  0.99190594872E+01  0.22453907646E+03  0.22556739060E+03  0.00000000000E+00 0.  1.
</event>
<event>
12   0  0.1523332E-01  0.1642712E+03  0.7957747E-01  0.1188989E+00
       -2   -1    0    0    0  501  0.00000000000E+00  0.00000000000E+00  0.12702323455E+03  0.12702323455E+03  0.00000000000E+00 0.  1.
        2   -1    0    0  502    0  0.00000000000E+00  0.00000000000E+00 -0.25735898929E+03  0.25735898929E+03  0.00000000000E+00 0. -1.
        6    2    1    2  502    0 -0.10141150418E+02 -0.12457083623E+02  0.17342242778E+02  0.15680311971E+03  0.15501110638E+03 0.  0.
       24    2    3    3    0    0  0.49541088295E+02 -0.84995689046E+01  0.13280060003E+02  0.96668081094E+02  0.81497213496E+02 0.  0.
       -6    2    1    2    0  501  0.10141150418E+02  0.12457083623E+02 -0.14767799751E+03  0.22757910414E+03  0.17241066042E+03 0.  0.
      -24    2    5    5    0    0  0.31210533522E+02  0.43535142297E+02 -0.16064913348E+03  0.18757779161E+03  0.80671418733E+02 0.  0.
        5    1    3    3  502    0 -0.59682238714E+02 -0.39575147186E+01  0.40621827747E+01  0.60135038617E+02  0.47000000000E+01 0. -1.
        2    1    4    4  503    0  0.25282057718E+02  0.17409296402E+01 -0.34086278934E+02  0.42474553442E+02  0.00000000000E+00 0. -1.
       -1    1    4    4    0  503  0.24259030577E+02 -0.10240498545E+02  0.47366338938E+02  0.54193527652E+02  0.00000000000E+00 0.  1.
       -5    1    5    5    0  501 -0.21069383104E+02 -0.31078058673E+02  0.12971135967E+02  0.40001312523E+02  0.47000000000E+01 0.  1.
       11    1    6    6    0    0 -0.14621382037E+02 -0.13659144517E+02 -0.58707682525E+02  0.62023777933E+02  0.00000000000E+00 0. -1.
      -12    1    6    6    0    0  0.45831915559E+02  0.57194286814E+02 -0.10194145096E+03  0.12555401368E+03  0.00000000000E+00 0.  1.
</event>
<event>
12   0  0.1523332E-01  0.1907875E+03  0.7957747E-01  0.1163725E+00
       21   -1    0    0  501  503  0.00000000000E+00  0.00000000000E+00  0.43791222759E+03  0.43791222759E+03  0.00000000000E+00 0.  1.
       21   -1    0    0  503  504  0.00000000000E+00  0.00000000000E+00 -0.90917732189E+02  0.90917732189E+02  0.00000000000E+00 0.  1.
        6    2    1    2  501    0 -0.14767007423E+02  0.78529676460E+02  0.25098069127E+03  0.31526364490E+03  0.17324804130E+03 0.  0.
       24    2    3    3    0    0 -0.72501311978E+02  0.54871325665E+02  0.15779515402E+03  0.20302015138E+03  0.89724960948E+02 0.  0.
       -6    2    1    2    0  504  0.14767007423E+02 -0.78529676460E+02  0.96013804132E+02  0.21356631488E+03  0.17322513003E+03 0.  0.
      -24    2    5    5    0    0 -0.46654254955E+02 -0.30111984569E+02  0.20470786692E+02  0.10472844535E+03  0.86403952668E+02 0.  0.
        5    1    3    3  501    0  0.57734304555E+02  0.23658350795E+02  0.93185537248E+02  0.11224349352E+03  0.47000000000E+01 0. -1.
      -11    1    4    4    0    0 -0.14329369889E+02  0.64314596806E+02  0.10463205041E+03  0.12365097725E+03  0.00000000000E+00 0.  1.
       12    1    4    4    0    0 -0.58171942089E+02 -0.94432711412E+01  0.53163103614E+02  0.79369174130E+02  0.00000000000E+00 0. -1.
       -5    1    5    5    0  504  0.61421262378E+02 -0.48417691891E+02  0.75543017440E+02  0.10883786953E+03  0.47000000000E+01 0.  1.
        1    1    6    6  502    0 -0.37557778494E+02 -0.54628067629E+02 -0.71682266902E+01  0.66679801831E+02  0.00000000000E+00 0. -1.
       -2    1    6    6    0  502 -0.90964764609E+01  0.24516083060E+02  0.27639013382E+02  0.38048643515E+02  0.00000000000E+00 0.  1.
</event>
<event>
12   0  0.1523332E-01  0.2782461E+03  0.7957747E-01  0.1104542E+00
       21   -1    0    0  504  503  0.00000000000E+00  0.00000000000E+00  0.33443436401E+03  0.33443436401E+03  0.00000000000E+00 0. -1.
       21   -1    0    0  501  504  0.00000000000E+00  0.00000000000E+00 -0.23058631208E+03  0.23058631208E+03  0.00000000000E+00 0.  1.
        6    2    1    2  501    0  0.21553223727E+03 -0.29543012189E+02  0.94245540305E+02  0.28660892305E+03  0.16104508075E+03 0.  0.
       24    2    3    3    0    0  0.22903288707E+03 -0.66532049742E+01  0.93084994481E+02  0.25959693153E+03  0.78901344514E+02 0.  0.
       -6    2    1    2    0  503 -0.21553223727E+03  0.29543012189E+02  0.96025116250E+01  0.27841175304E+03  0.17347611112E+03 0.  0.
      -24    2    5    5    0    0 -0.22516850275E+03 -0.36192357531E+01 -0.82102831336E+01  0.23927126303E+03  0.80432425439E+02 0.  0.
        5    1    3    3  501    0 -0.13500649799E+02 -0.22889807215E+02  0.11605458234E+01  0.27011991521E+02  0.47000000000E+01 0. -1.
      -11    1    4    4    0    0  0.14336568109E+03  0.20252557971E+02  0.25049841735E+02  0.14694005305E+03  0.00000000000E+00 0.  1.
       12    1    4    4    0    0  0.85667205977E+02 -0.26905762945E+02  0.68035152746E+02  0.11265687848E+03  0.00000000000E+00 0. -1.
       -5    1    5    5    0  503  0.96362654853E+01  0.33162247942E+02  0.17812794759E+02  0.39140490010E+02  0.47000000000E+01 0.  1.
        3    1    6    6  502    0 -0.16047147040E+03  0.27677683340E+02  0.15536531964E+02  0.16358034965E+03  0.00000000000E+00 0. -1.
       -4    1    6    6    0  502 -0.64697032353E+02 -0.31296919093E+02 -0.23746815098E+02  0.75690913373E+02  0.00000000000E+00 0.  1.
</event>
<event>
12   0  0.1523332E-01  0.1787537E+03  0.7957747E-01  0.1174591E+00
       21   -1    0    0  501  503  0.00000000000E+00  0.00000000000E+00  0.11376486897E+03  0.11376486897E+03  0.00000000000E+00 0.  1.
       21   -1    0    0  503  504  0.00000000000E+00  0.00000000000E+00 -0.28755640011E+03  0.28755640011E+03  0.00000000000E+00 0.  1.
        6    2    1    2  501    0  0.31620012816E+02  0.21603348258E+02 -0.56128912040E+02  0.18735887805E+03  0.17460344942E+03 0.  0.
       24    2    3    3    0    0 -0.17650855623E+02 -0.39030708754E+02 -0.57989963982E+02  0.10906672735E+03  0.81839881242E+02 0.  0.
       -6    2    1    2    0  504 -0.31620012816E+02 -0.21603348258E+02 -0.11766261910E+03  0.21396239103E+03  0.17455338145E+03 0.  0.
      -24    2    5    5    0    0 -0.16518595583E+02 -0.75137678890E+02 -0.42686597860E+02  0.12048795003E+03  0.82320505810E+02 0.  0.
        5    1    3    3  501    0  0.49270868439E+02  0.60634057012E+02  0.18610519417E+01  0.78292150697E+02  0.47000000000E+01 0. -1.
        2    1    4    4  502    0 -0.22027635252E+02 -0.63365804677E+02 -0.36873790595E+02  0.76551409850E+02  0.00000000000E+00 0. -1.
       -1    1    4    4    0  502  0.43767796286E+01  0.24335095923E+02 -0.21116173387E+02  0.32515317498E+02  0.00000000000E+00 0.  1.
       -5    1    5    5    0  504 -0.15101417233E+02  0.53534330633E+02 -0.74976021244E+02  0.93474441001E+02  0.47000000000E+01 0.  1.
       13    1    6    6    0    0 -0.43776217720E+02 -0.16155015880E+02 -0.98690163184E+01  0.47694226684E+02  0.00000000000E+00 0. -1.
      -14    1    6    6    0    0  0.27257622137E+02 -0.58982663011E+02 -0.32817581541E+02  0.72793723346E+02  0.00000000000E+00 0.  1.
</event>
<event>
12   0  0.1523332E-01  0.1966574E+03  0.7957747E-01  0.1158739E+00
       21   -1    0    0  501  503  0.00000000000E+00  0.00000000000E+00  0.48187680161E+03  0.48187680161E+03  0.00000000000E+00 0. -1.
       21   -1    0    0  503  504  0.00000000000E+00  0.00000000000E+00 -0.10511987055E+03  0.10511987055E+03  0.00000000000E+00 0. -1.
        6    2    1    2  501    0  0.86352108922E+02 -0.32567780007E+02  0.33158180626E+03  0.38521725866E+03  0.17299854080E+03 0.  0.
       24    2    3    3    0    0  0.11626432188E+02  0.39542784133E+02  0.19147170194E+03  0.21075582580E+03  0.77831868549E+02 0.  0.
       -6    2    1    2    0  504 -0.86352108922E+02  0.32567780007E+02  0.45175124806E+02  0.20177941350E+03  0.17365711273E+03 0.  0.
      -24    2    5    5    0    0 -0.60300365670E+02 -0.38394631470E+02  0.61637153493E+02  0.12427170061E+03  0.80833378357E+02 0.  0.
        5    1    3    3  501    0  0.74725676733E+02 -0.72110564141E+02  0.14011010432E+03  0.17446143287E+03  0.47000000000E+01 0. -1.
      -11    1    4    4    0    0  0.30509252686E+02  0.51995035961E+02  0.10212944322E+03  0.11859477828E+03  0.00000000000E+00 0.  1.
       12    1    4    4    0    0 -0.18882820498E+02 -0.12452251828E+02  0.89342258722E+02  0.92161047515E+02  0.00000000000E+00 0. -1.
       -5    1    5    5    0  504 -0.26051743252E+02  0.70962411477E+02 -0.16462028687E+02  0.77507712891E+02  0.47000000000E+01 0.  1.
        1    1    6    6  502    0 -0.26273599469E+02  0.44179336178E+01 -0.14652292178E+02  0.30405753281E+02  0.00000000000E+00 0. -1.
       -2    1    6    6    0  502 -0.34026766201E+02 -0.42812565087E+02  0.76289445671E+02  0.93865947331E+02  0.00000000000E+00 0.  1.
</event>
<event>
12   0  0.1523332E-01  0.1966519E+03  0.7957747E-01  0.1158744E+00
       21   -1    0    0  504  503  0.00000000000E+00  0.00000000000E+00  0.83954132993E+03  0.83954132993E+03  0.00000000000E+00 0. -1.
       21   -1    0    0  501  504  0.00000000000E+00  0.00000000000E+00 -0.24873352351E+03  0.24873352351E+03  0.00000000000E+00 0. -1.
        6    2    1    2  501    0  0.53133296270E+02 -0.74207913114E+02 -0.19595364083E+03  0.27761447983E+03  0.17418957637E+03 0.  0.
       24    2    3    3    0    0  0.76262635212E+02 -0.42975510539E+02 -0.54773813636E+02  0.13110761003E+03  0.80784594528E+02 0.  0.
       -6    2    1    2    0  503 -0.53133296270E+02  0.74207913114E+02  0.78676144726E+03  0.81066037361E+03  0.17276198919E+03 0.  0.
      -24    2    5    5    0    0  0.11029697803E+01  0.80091273654E+02  0.69118283472E+03  0.70050798979E+03  0.81005580607E+02 0.  0.
        5    1    3    3  501    0 -0.23129338942E+02 -0.31232402574E+02 -0.14117982720E+03  0.14650686980E+03  0.47000000000E+01 0. -1.
      -13    1    4    4    0    0  0.53957586423E+02 -0.67112769322E+02 -0.42446809434E+02  0.96006648571E+02  0.00000000000E+00 0.  1.
       14    1    4    4    0    0  0.22305048789E+02  0.24137258783E+02 -0.12327004202E+02  0.35100961463E+02  0.00000000000E+00 0. -1.
       -5    1    5    5    0  503 -0.54236266050E+02 -0.58833605408E+01  0.95578612535E+02  0.11015238382E+03  0.47000000000E+01 0.  1.
        1    1    6    6  502    0  0.16108035987E+01  0.24486729567E+02  0.51876290718E+03  0.51934299695E+03  0.00000000000E+00 0. -1.
       -2    1    6    6    0  502 -0.50783381833E+00  0.55604544087E+02  0.17241992754E+03  0.18116499284E+03  0.00000000000E+00 0.  1.
</event>
<event>
12   0  0.1523332E-01  0.2083894E+03  0.7957747E-01  0.1149323E+00
       21   -1    0    0  501  503  0.00000000000E+00  0.00000000000E+00  0.29041992417E+03  0.29041992417E+03  0.00000000000E+00 0.  1.
       21   -1    0    0  503  504  0.00000000000E+00  0.00000000000E+00 -0.15150525515E+03  0.15150525515E+03  0.00000000000E+00 0. -1.
        6    2    1    2  501    0  0.20040267989E+02 -0.11501533151E+03  0.13284264004E+03  0.24713013063E+03  0.17261516627E+03 0.  0.
       24    2    3    3    0    0 -0.16266485130E+01 -0.13306676007E+03  0.14938246986E+03  0.21410036657E+03  0.76252449408E+02 0.  0.
       -6    2    1    2    0  504 -0.20040267989E+02  0.11501533151E+03  0.60720289827E+01  0.19479504869E+03  0.15581432102E+03 0.  0.
      -24    2    5    5    0    0 -0.40730395729E+02  0.12543117900E+02  0.12558517821E+02  0.89948491828E+02  0.78209461508E+02 0.  0.
        5    1    3    3  501    0  0.21666916502E+02  0.18051428562E+02 -0.16539829814E+02  0.33029764064E+02  0.47000000000E+01 0. -1.
        4    1    4    4  502    0  0.23284780859E+02 -0.43663395091E+02  0.93441755918E+02  0.10573568385E+03  0.00000000000E+00 0. -1.
       -3    1    4    4    0  502 -0.24911429372E+02 -0.89403364982E+02  0.55940713941E+02  0.10836468271E+03  0.00000000000E+00 0.  1.
       -5    1    5    5    0  504  0.20690127740E+02  0.10247221361E+03 -0.64864888388E+01  0.10484655686E+03  0.47000000000E+01 0.  1.
       13    1    6    6    0    0 -0.64495311683E+01  0.42183108113E+02 -0.87253677670E+00  0.42682225607E+02  0.00000000000E+00 0. -1.
      -14    1    6    6    0    0 -0.34280864561E+02 -0.29639990213E+02  0.13431054598E+02  0.47266266221E+02  0.00000000000E+00 0.  1.
</event>
<event>
12   0  0.1523332E-01  0.1943529E+03  0.7957747E-01  0.1160673E+00
       21   -1    0    0  501  503  0.00000000000E+00  0.00000000000E+00  0.66748829648E+03  0.66748829648E+03  0.00000000000E+00 0.  1.
       21   -1    0    0  503  504  0.00000000000E+00  0.00000000000E+00 -0.16056535648E+03  0.16056535648E+03  0.00000000000E+00 0. -1.
        6    2    1    2  501    0 -0.15049420080E+02 -0.87161518090E+02  0.58700348427E+03  0.61784910727E+03  0.17129160380E+03 0.  0.
       24    2    3    3    0    0 -0.30970201972E+02 -0.17686729284E+02  0.48470958832E+03  0.49308393295E+03  0.83164933231E+02 0.  0.
       -6    2    1    2    0  504  0.15049420080E+02  0.87161518090E+02 -0.80080544273E+02  0.21020454568E+03  0.17305907134E+03 0.  0.
      -24    2    5    5    0    0 -0.16650194223E+02  0.21393389001E+02  0.20421574501E+02  0.85894134899E+02  0.78904091429E+02 0.  0.
        5    1    3    3  501    0  0.15920781892E+02 -0.69474788806E+02  0.10229389595E+03  0.12476517432E+03  0.47000000000E+01 0. -1.
        2    1    4    4  502    0 -0.39696436126E+02  0.20684419515E+02  0.34657377005E+03  0.34945247222E+03  0.00000000000E+00 0. -1.
       -1    1    4    4    0  502  0.87262341546E+01 -0.38371148799E+02  0.13813581827E+03  0.14363146073E+03  0.00000000000E+00 0.  1.
       -5    1    5    5    0  504  0.31699614303E+02  0.65768129089E+02 -0.10050211877E+03  0.12431041078E+03  0.47000000000E+01 0.  1.
       13    1    6    6    0    0  0.23519534349E+01  0.49314402211E+02  0.86166102249E+01  0.50116742933E+02  0.00000000000E+00 0. -1.
      -14    1    6    6    0    0 -0.19002147658E+02 -0.27921013210E+02  0.11804964276E+02  0.35777391966E+02  0.00000000000E+00 0.  1.
</event>
<event>
12   0  0.1523332E-01  0.2049991E+03  0.7957747E-01  0.1151973E+00
       21   -1    0    0  501  503  0.00000000000E+00  0.00000000000E+00  0.57702487791E+03  0.57702487791E+03  0.00000000000E+00 0.  1.
       21   -1    0    0  503  504  0.00000000000E+00  0.00000000000E+00 -0.21125846770E+03  0.21125846770E+03  0.00000000000E+00 0. -1.
        6    2    1    2  501    0  0.94786355430E+02  0.39342790254E+02  0.50307103776E+03  0.54155031108E+03  0.17223229102E+03 0.  0.
       24    2    3    3    0    0  0.20750650646E+02  0.53579404500E+02  0.40739937511E+03  0.41965230534E+03  0.82658722750E+02 0.  0.
       -6    2    1    2    0  504 -0.94786355430E+02 -0.39342790254E+02 -0.13730462756E+03  0.24673303454E+03  0.17746075979E+03 0.  0.
      -24    2    5    5    0    0 -0.60102595165E+01 -0.32989684945E+02 -0.13139575561E+03  0.15741023834E+03  0.79929318849E+02 0.  0.
        5    1    3    3  501    0  0.74035704783E+02 -0.14236614246E+02  0.95671662654E+02  0.12189800574E+03  0.47000000000E+01 0. -1.
        2    1    4    4  502    0  0.57819460520E+01 -0.19643243751E+02  0.15723177548E+03  0.15855951295E+03  0.00000000000E+00 0. -1.
       -1    1    4    4    0  502  0.14968704594E+02  0.73222648251E+02  0.25016759963E+03  0.26109279239E+03  0.00000000000E+00 0.  1.
       -5    1    5    5    0  504 -0.88776095913E+02 -0.63531053092E+01 -0.59088719516E+01  0.89322796197E+02  0.47000000000E+01 0.  1.
       13    1    6    6    0    0 -0.25428734853E+02  0.18624164490E+02 -0.49103259868E+02  0.58349037600E+02  0.00000000000E+00 0. -1.
      -14    1    6    6    0    0  0.19418475336E+02 -0.51613849434E+02 -0.82292495737E+02  0.99061200742E+02  0.00000000000E+00 0.  1.
</event>
<event>
12   0  0.1523332E-01  0.2875719E+03  0.7957747E-01  0.1099656E+00
       21   -1    0    0  504  503  0.00000000000E+00  0.00000000000E+00  0.23417568767E+03  0.23417568767E+03  0.00000000000E+00 0.  1.
       21   -1    0    0  501  504  0.00000000000E+00  0.00000000000E+00 -0.46201834694E+03  0.46201834694E+03  0.00000000000E+00 0. -1.
        6    2    1    2  501    0 -0.19947283044E+02 -0.23177951300E+03  0.59650224833E+02  0.28956184577E+03  0.16176611653E+03 0.  0.
       24    2    3    3    0    0  0.27710327152E+02 -0.20859387288E+03  0.69883089041E+02  0.23538045388E+03  0.79000290511E+02 0.  0.
       -6    2    1    2    0  503  0.19947283044E+02  0.23177951300E+03 -0.28749288411E+03  0.40663218884E+03  0.16905011636E+03 0.  0.
      -24    2    5    5    0    0  0.55441271385E+01  0.24910925829E+03 -0.27728930536E+03  0.38145334869E+03  0.80815459228E+02 0.  0.
        5    1    3    3  501    0 -0.47657610195E+02 -0.23185640113E+02 -0.10232864208E+02  0.54181391888E+02  0.47000000000E+01 0. -1.
      -13    1    4    4    0    0  0.15506625395E+02 -0.18352513998E+03  0.85900101143E+02  0.20322588372E+03  0.00000000000E+00 0.  1.
       14    1    4    4    0    0  0.12203701756E+02 -0.25068732902E+02 -0.16017012102E+02  0.32154570166E+02  0.00000000000E+00 0. -1.
       -5    1    5    5    0  503  0.14403155905E+02 -0.17329745291E+02 -0.10203578745E+02  0.25178840146E+02  0.47000000000E+01 0.  1.
        3    1    6    6  502    0 -0.31910969529E+02  0.16953136041E+03 -0.16392669239E+03  0.23797300817E+03  0.00000000000E+00 0. -1.
       -4    1    6    6    0  502  0.37455096668E+02  0.79577897874E+02 -0.11336261297E+03  0.14348034052E+03  0.00000000000E+00 0.  1.
</event>
<event>
12   0  0.1523332E-01  0.2221859E+03  0.7957747E-01  0.1139082E+00
       21   -1    0    0  501  503  0.00000000000E+00  0.00000000000E+00  0.11365096369E+03  0.11365096369E+03  0.00000000000E+00 0.  1.
       21   -1    0    0  503  504  0.00000000000E+00  0.00000000000E+00 -0.86447492925E+03  0.86447492925E+03  0.00000000000E+00 0.  1.
        6    2    1    2  501    0  0.13769090120E+03  0.16324449988E+02 -0.30326614987E+02  0.22414777670E+03  0.17348559100E+03 0.  0.
       24    2    3    3    0    0  0.14618293452E+03  0.62990134041E+02 -0.42121057810E+02  0.17504584620E+03  0.59410920110E+02 0.  0.
       -6    2    1    2    0  504 -0.13769090120E+03 -0.16324449988E+02 -0.72049735057E+03  0.75397811623E+03  0.17361248698E+03 0.  0.
      -24    2    5    5    0    0 -0.90635846307E+02  0.53207181469E+02 -0.51871919577E+03  0.53537953499E+03  0.80720391684E+02 0.  0.
        5    1    3    3  501    0 -0.84920333240E+01 -0.46665684053E+02  0.11794442823E+02  0.49101930508E+02  0.47000000000E+01 0. -1.
      -13    1    4    4    0    0  0.74566406958E+02  0.62548799796E+02 -0.33403023639E+02  0.10289928761E+03  0.00000000000E+00 0.  1.
       14    1    4    4    0    0  0.71616527563E+02  0.44133424450E+00 -0.87180341709E+01  0.72146558587E+02  0.00000000000E+00 0. -1.
       -5    1    5    5    0  504 -0.47055054890E+02 -0.69531631457E+02 -0.20177815480E+03  0.21859858124E+03  0.47000000000E+01 0.  1.
        3    1    6    6  502    0 -0.69240132581E+02  0.25070612111E+02 -0.17520310975E+03  0.19004962830E+03  0.00000000000E+00 0. -1.
       -4    1    6    6    0  502 -0.21395713726E+02  0.28136569359E+02 -0.34351608602E+03  0.34532990669E+03  0.00000000000E+00 0.  1.
</event>
<event>
12   0  0.1523332E-01  0.1913389E+03  0.7957747E-01  0.1163248E+00
       21   -1    0    0  501  503  0.00000000000E+00  0.00000000000E+00  0.13262940287E+04  0.13262940287E+04  0.00000000000E+00 0. -1.
       21   -1    0    0  503  504  0.00000000000E+00  0.00000000000E+00 -0.33029439242E+02  0.33029439242E+02  0.00000000000E+00 0. -1.
        6    2    1    2  501    0 -0.79700226782E+02 -0.30878122893E+01  0.92771888650E+03  0.94724490333E+03  0.17392214863E+03 0.  0.
       24    2    3    3    0    0 -0.10814759029E+03  0.25994430919E+02  0.52590976087E+03  0.54335420921E+03  0.79253443835E+02 0.  0.
       -6    2    1    2    0  504  0.79700226782E+02  0.30878122893E+01  0.36554570294E+03  0.41207856459E+03  0.17269459090E+03 0.  0.
      -24    2    5    5    0    0  0.70584229138E+01 -0.44167145354E+02  0.26159399210E+03  0.27666102187E+03  0.78162307129E+02 0.  0.
        5    1    3    3  501    0  0.28447363511E+02 -0.29082243209E+02  0.40180912563E+03  0.40389069412E+03  0.47000000000E+01 0. -1.
        4    1    4    4  502    0 -0.46792337970E+02  0.10288389643E+02  0.39536644496E+03  0.39825870946E+03  0.00000000000E+00 0. -1.
       -3    1    4    4    0  502 -0.61355252323E+02  0.15706041276E+02  0.13054331590E+03  0.14509549975E+03  0.00000000000E+00 0.  1.
       -5    1    5    5    0  504  0.72641803869E+02  0.47254957643E+02  0.10395171084E+03  0.13541754273E+03  0.47000000000E+01 0.  1.
       11    1    6    6    0    0  0.22540459325E+02 -0.25196127366E+01  0.17746646453E+02  0.28798684262E+02  0.00000000000E+00 0. -1.
      -12    1    6    6    0    0 -0.15482036411E+02 -0.41647532617E+02  0.24384734565E+03  0.24786233760E+03  0.00000000000E+00 0.  1.
</event>
<event>
12   0  0.1523332E-01  0.2060031E+03  0.7957747E-01  0.1151182E+00
       21   -1    0    0  501  503  0.00000000000E+00  0.00000000000E+00  0.36162056350E+03  0.36162056350E+03  0.00000000000E+00 0. -1.
       21   -1    0    0  503  504  0.00000000000E+00  0.00000000000E+00 -0.12241786739E+03  0.12241786739E+03  0.00000000000E+00 0.  1.
        6    2    1    2  501    0 -0.98850726412E+02  0.35554402806E+02  0.17845448685E+03  0.27254958913E+03  0.17720522844E+03 0.  0.
       24    2    3    3    0    0 -0.59434638537E+02 -0.43259590164E+02  0.14902586708E+03  0.17952589789E+03  0.67948293231E+02 0.  0.
       -6    2    1    2    0  504  0.98850726412E+02 -0.35554402806E+02  0.60748209255E+02  0.21148884176E+03  0.17320970986E+03 0.  0.
      -24    2    5    5    0    0 -0.31926617014E+01 -0.23047761903E+02 -0.27633169381E+01  0.90554673371E+02  0.87470683839E+02 0.  0.
        5    1    3    3  501    0 -0.39416087875E+02  0.78813992970E+02  0.29428619770E+02  0.93023691245E+02  0.47000000000E+01 0. -1.
        2    1    4    4  502    0 -0.17951657280E+02 -0.22340784805E+02  0.12295683692E+03  0.12625274813E+03  0.00000000000E+00 0. -1.
       -1    1    4    4    0  502 -0.41482981257E+02 -0.20918805359E+02  0.26069030167E+02  0.53273149761E+02  0.00000000000E+00 0.  1.
       -5    1    5    5    0  504  0.10204338811E+03 -0.12506640903E+02  0.63511526193E+02  0.12093416839E+03  0.47000000000E+01 0.  1.
       13    1    6    6    0    0 -0.75961525122E+01 -0.29188416068E+02  0.38329374994E+02  0.48773006397E+02  0.00000000000E+00 0. -1.
      -14    1    6    6    0    0  0.44034908108E+01  0.61406541648E+01 -0.41092691932E+02  0.41781666974E+02  0.00000000000E+00 0.  1.
</event>
<event>
12   0  0.1523332E-01  0.1950799E+03  0.7957747E-01  0.1160060E+00
       21   -1    0    0  501  503  0.00000000000E+00  0.00000000000E+00  0.42002416514E+03  0.42002416514E+03  0.00000000000E+00 0. -1.
       21   -1    0    0  503  504  0.00000000000E+00  0.00000000000E+00 -0.10075576798E+03  0.10075576798E+03  0.00000000000E+00 0. -1.
        6    2    1    2  501    0 -0.29783538468E+02 -0.87056723119E+02  0.24674306094E+03  0.31265475939E+03  0.16853761669E+03 0.  0.
       24    2    3    3    0    0  0.14993979430E+02  0.86716937337E+01  0.14289636606E+03  0.16441447491E+03  0.79452693080E+02 0.  0.
       -6    2    1    2    0  504  0.29783538468E+02  0.87056723119E+02  0.72525336218E+02  0.20812517374E+03  0.17201811342E+03 0.  0.
      -24    2    5    5    0    0 -0.70229985636E+01  0.42767016623E+02  0.10811610534E+03  0.14026434471E+03  0.78145082658E+02 0.  0.
        5    1    3    3  501    0 -0.44777517898E+02 -0.95728416853E+02  0.10384669488E+03  0.14824028447E+03  0.47000000000E+01 0. -1.
      -13    1    4    4    0    0  0.94218757880E+01 -0.27349905749E+02  0.11481160151E+03  0.11839971676E+03  0.00000000000E+00 0.  1.
       14    1    4    4    0    0  0.55721036415E+01  0.36021599483E+02  0.28084764549E+02  0.46014758155E+02  0.00000000000E+00 0. -1.
       -5    1    5    5    0  504  0.36806537032E+02  0.44289706496E+02 -0.35590769119E+02  0.67860829028E+02  0.47000000000E+01 0.  1.
        1    1    6    6  502    0  0.30233768652E+02  0.28719153673E+02  0.26373797128E+02  0.49340122918E+02  0.00000000000E+00 0. -1.
       -2    1    6    6    0  502 -0.37256767216E+02  0.14047862949E+02  0.81742308209E+02  0.90924221790E+02  0.00000000000E+00 0.  1.
</event>
<event>
12   0  0.1523332E-01  0.1818920E+03  0.7957747E-01  0.1171669E+00
       21   -1    0    0  504  503  0.00000000000E+00  0.00000000000E+00  0.19739195944E+03  0.19739195944E+03  0.00000000000E+00 0.  1.
       21   -1    0    0  501  504  0.00000000000E+00  0.00000000000E+00 -0.27046269829E+03  0.27046269829E+03  0.00000000000E+00 0.  1.
        6    2    1    2  501    0 -0.46926819868E+02  0.23104197264E+02 -0.18095296615E+03  0.25657098557E+03  0.17420896740E+03 0.  0.
       24    2    3    3    0    0  0.39669664485E+02  0.21953173994E+02 -0.12329542702E+03  0.15242321662E+03  0.77301038243E+02 0.  0.
       -6    2    1    2    0  503  0.46926819868E+02 -0.23104197264E+02  0.10788222730E+03  0.21128367217E+03  0.17397208054E+03 0.  0.
      -24    2    5    5    0    0 -0.28350902659E+02 -0.35372543503E+02  0.20121597317E+02  0.94916726683E+02  0.80927843232E+02 0.  0.
        5    1    3    3  501    0 -0.86596484353E+02  0.11510232701E+01 -0.57657539130E+02  0.10414776894E+03  0.47000000000E+01 0. -1.
      -13    1    4    4    0    0  0.41207590400E+02  0.41380336690E+02 -0.50954350573E+02  0.77503184537E+02  0.00000000000E+00 0.  1.
       14    1    4    4    0    0 -0.15379259144E+01 -0.19427162696E+02 -0.72341076446E+02  0.74920032087E+02  0.00000000000E+00 0. -1.
       -5    1    5    5    0  503  0.75277722526E+02  0.12268346239E+02  0.87760629981E+02  0.11636694549E+03  0.47000000000E+01 0.  1.
        3    1    6    6  502    0  0.58619090570E+01  0.23674851209E+02  0.74951305684E+01  0.25515437284E+02  0.00000000000E+00 0. -1.
       -4    1    6    6    0  502 -0.34212811716E+02 -0.59047394712E+02  0.12626466749E+02  0.69401289399E+02  0.00000000000E+00 0.  1.
</event>
<event>
12   0  0.1523332E-01  0.2119657E+03  0.7957747E-01  0.1146587E+00
       -2   -1    0    0    0  501  0.00000000000E+00  0.00000000000E+00  0.23556212508E+02  0.23556212508E+02  0.00000000000E+00 0. -1.
        2   -1    0    0  502    0  0.00000000000E+00  0.00000000000E+00 -0.21432562058E+04  0.21432562058E+04  0.00000000000E+00 0.  1.
        6    2    1    2  502    0  0.50798397896E+02  0.10555138377E+03 -0.14107464917E+04  0.14263026757E+04  0.17439061632E+03 0.  0.
       24    2    3    3    0    0  0.57014007272E+02 -0.38644914157E+01 -0.76022979877E+03  0.76660234577E+03  0.80400735615E+02 0.  0.
       -6    2    1    2    0  501 -0.50798397896E+02 -0.10555138377E+03 -0.70895350162E+03  0.74050974262E+03  0.17893585335E+03 0.  0.
      -24    2    5    5    0    0 -0.10923453686E+02 -0.11000993141E+03 -0.67229146546E+03  0.68595623936E+03  0.79615582267E+02 0.  0.
        5    1    3    3  502    0 -0.62156093767E+01  0.10941587519E+03 -0.65051669293E+03  0.65970032994E+03  0.47000000000E+01 0. -1.
        4    1    4    4  503    0  0.33444400079E+02 -0.41656318670E+02 -0.36936522443E+03  0.37320831421E+03  0.00000000000E+00 0. -1.
       -3    1    4    4    0  503  0.23569607193E+02  0.37791827255E+02 -0.39086457434E+03  0.39339403156E+03  0.00000000000E+00 0.  1.
       -5    1    5    5    0  501 -0.39874944209E+02  0.44585476316E+01 -0.36662036160E+02  0.54553503261E+02  0.47000000000E+01 0.  1.
       11    1    6    6    0    0  0.11614060179E+02 -0.61281352341E+02 -0.17515044852E+03  0.18592463569E+03  0.00000000000E+00 0. -1.
      -12    1    6    6    0    0 -0.22537513865E+02 -0.48728579065E+02 -0.49714101694E+03  0.50003160367E+03  0.00000000000E+00 0.  1.
</event>
<event>
12   0  0.1523332E-01  0.2356007E+03  0.7957747E-01  0.1129876E+00
       21   -1    0    0  501  503  0.00000000000E+00  0.00000000000E+00  0.11110868374E+03  0.11110868374E+03  0.00000000000E+00 0.  1.
       21   -1    0    0  503  504  0.00000000000E+00  0.00000000000E+00 -0.61421444743E+03  0.61421444743E+03  0.00000000000E+00 0.  1.
        6    2    1    2  501    0  0.15306858571E+02 -0.13827928181E+03 -0.82234927174E+02  0.24954016655E+03  0.19013745495E+03 0.  0.
       24    2    3    3    0    0  0.66123785436E+02 -0.58520031515E+02 -0.96701575963E+02  0.15375252647E+03  0.80571058791E+02 0.  0.
       -6    2    1    2    0  504 -0.15306858571E+02  0.13827928181E+03 -0.42087083652E+03  0.47578296462E+03  0.17286326590E+03 0.  0.
      -24    2    5    5    0    0 -0.77174863621E+02  0.92004638878E+02 -0.28603330322E+03  0.32030871270E+03  0.79760941104E+02 0.  0.
        5    1    3    3  501    0 -0.50816926864E+02 -0.79759250299E+02  0.14466648789E+02  0.95787640076E+02  0.47000000000E+01 0. -1.
      -13    1    4    4    0    0  0.30325174836E+02  0.68558106416E+01  0.70716120580E+00  0.31098528026E+02  0.00000000000E+00 0.  1.
       14    1    4    4    0    0  0.35798610599E+02 -0.65375842157E+02 -0.97408737169E+02  0.12265399845E+03  0.00000000000E+00 0. -1.
       -5    1    5    5    0  504  0.61868005049E+02  0.46274642937E+02 -0.13483753329E+03  0.15547425193E+03  0.47000000000E+01 0.  1.
        1    1    6    6  502    0 -0.36875948618E+02  0.70951465864E+02 -0.96136414460E+02  0.12504461716E+03  0.00000000000E+00 0. -1.
       -2    1    6    6    0  502 -0.40298915002E+02  0.21053173014E+02 -0.18989688876E+03  0.19526409554E+03  0.00000000000E+00 0.  1.
</event>
<event>
12   0  0.1523332E-01  0.1832778E+03  0.7957747E-01  0.1170399E+00
       21   -1    0    0  501  503  0.00000000000E+00  0.00000000000E+00  0.66369799608E+03  0.66369799608E+03  0.00000000000E+00 0.  1.
       21   -1    0    0  503  504  0.00000000000E+00  0.00000000000E+00 -0.13160232071E+03  0.13160232071E+03  0.00000000000E+00 0.  1.
        6    2    1    2  501    0  0.35374085725E+02  0.42883480029E+02  0.57843720224E+03  0.60625457609E+03  0.17281404833E+03 0.  0.
       24    2    3    3    0    0  0.70883339885E+01 -0.39663384405E+02  0.34536400510E+03  0.35733837774E+03  0.82407473231E+02 0.  0.
       -6    2    1    2    0  504 -0.35374085725E+02 -0.42883480029E+02 -0.46341526867E+02  0.18904574070E+03  0.17464374070E+03 0.  0.
      -24    2    5    5    0    0 -0.12773753247E+02 -0.88148390503E+02 -0.64951079363E+02  0.13493388809E+03  0.77815190840E+02 0.  0.
        5    1    3    3  501    0  0.28285751737E+02  0.82546864433E+02  0.23307319713E+03  0.24891619835E+03  0.47000000000E+01 0. -1.
        4    1    4    4  502    0 -0.37472896588E+02 -0.13251631477E+02  0.16121073094E+03  0.16603831933E+03  0.00000000000E+00 0. -1.
       -3    1    4    4    0  502  0.44561230577E+02 -0.26411752928E+02  0.18415327416E+03  0.19130005841E+03  0.00000000000E+00 0.  1.
       -5    1    5    5    0  504 -0.22600332478E+02  0.45264910475E+02  0.18609552495E+02  0.54111852606E+02  0.47000000000E+01 0.  1.
       13    1    6    6    0    0 -0.34904885315E+02 -0.83713736850E+02 -0.66261060629E+02  0.11232483658E+03  0.00000000000E+00 0. -1.
      -14    1    6    6    0    0  0.22131132068E+02 -0.44346536528E+01  0.13099812662E+01  0.22609051518E+02  0.00000000000E+00 0.  1.
</event>
<event>
12   0  0.1523332E-01  0.2498462E+03  0.7957747E-01  0.1120805E+00
       21   -1    0    0  504  503  0.00000000000E+00  0.00000000000E+00  0.21228375907E+03  0.21228375907E+03  0.00000000000E+00 0. -1.
       21   -1    0    0  501  504  0.00000000000E+00  0.00000000000E+00 -0.28711255321E+03  0.28711255321E+03  0.00000000000E+00 0. -1.
        6    2    1    2  501    0 -0.34654826234E+02  0.16695930742E+03 -0.56642449782E+02  0.25618645678E+03  0.18261096956E+03 0.  0.
       24    2    3    3    0    0  0.46958489301E+02  0.47060354310E+02 -0.35091091085E+02  0.10947911786E+03  0.79589672126E+02 0.  0.
       -6    2    1    2    0  503  0.34654826234E+02 -0.16695930742E+03 -0.18186344355E+02  0.24320985550E+03  0.17246426695E+03 0.  0.
      -24    2    5    5    0    0  0.24554210990E+02 -0.14394095421E+03  0.47103238945E+02  0.17309076609E+03  0.80123595832E+02 0.  0.
        5    1    3    3  501    0 -0.81613315535E+02  0.11989895311E+03 -0.21551358697E+02  0.14670733892E+03  0.47000000000E+01 0. -1.
      -13    1    4    4    0    0 -0.14840397108E+02 -0.11231640856E+02 -0.85070647444E+01  0.20463560130E+02  0.00000000000E+00 0.  1.
       14    1    4    4    0    0  0.61798886409E+02  0.58291995166E+02 -0.26584026340E+02  0.89015557732E+02  0.00000000000E+00 0. -1.
       -5    1    5    5    0  503  0.10100615243E+02 -0.23018353214E+02 -0.65289583300E+02  0.70119089415E+02  0.47000000000E+01 0.  1.
        1    1    6    6  502    0  0.57193074412E+01 -0.54814154887E+02  0.59561900434E+02  0.81147532537E+02  0.00000000000E+00 0. -1.
       -2    1    6    6    0  502  0.18834903549E+02 -0.89126799323E+02 -0.12458661490E+02  0.91943233549E+02  0.00000000000E+00 0.  1.
</event>
<event>
12   0  0.1523332E-01  0.1788433E+03  0.7957747E-01  0.1174507E+00
       21   -1    0    0  501  503  0.00000000000E+00  0.00000000000E+00  0.10090312323E+04  0.10090312323E+04  0.00000000000E+00 0. -1.
       21   -1    0    0  503  504  0.00000000000E+00  0.00000000000E+00 -0.89966169044E+02  0.89966169044E+02  0.00000000000E+00 0. -1.
        6    2    1    2  501    0  0.44890131770E+02  0.67557307082E+01  0.90296107124E+03  0.92050183711E+03  0.17298604605E+03 0.  0.
       24    2    3    3    0    0  0.38355255501E+02  0.72732400427E+02  0.63618603187E+03  0.64557159653E+03  0.72587129758E+02 0.  0.
       -6    2    1    2    0  504 -0.44890131770E+02 -0.67557307082E+01  0.16103992057E+02  0.17849556427E+03  0.17187368640E+03 0.  0.
      -24    2    5    5    0    0  0.19136696113E+02  0.45000093392E+02 -0.12824357587E+01  0.94219364254E+02  0.80525911454E+02 0.  0.
        5    1    3    3  501    0  0.65348762687E+01 -0.65976669719E+02  0.26677503937E+03  0.27493024058E+03  0.47000000000E+01 0. -1.
        2    1    4    4  502    0  0.14794009625E+02  0.81504096472E+02  0.53102502213E+03  0.53744707143E+03  0.00000000000E+00 0. -1.
       -1    1    4    4    0  502  0.23561245876E+02 -0.87716960444E+01  0.10516100974E+03  0.10812452511E+03  0.00000000000E+00 0.  1.
       -5    1    5    5    0  504 -0.64026827883E+02 -0.51755824101E+02  0.17386427816E+02  0.84276200017E+02  0.47000000000E+01 0.  1.
       11    1    6    6    0    0  0.76872232787E+01  0.20588863373E+02 -0.40821733144E+02  0.46361714740E+02  0.00000000000E+00 0. -1.
      -12    1    6    6    0    0  0.11449472835E+02  0.24411230020E+02  0.39539297386E+02  0.47857649514E+02  0.00000000000E+00 0.  1.
</event>
<event>
12   0  0.1523332E-01  0.2084215E+03  0.7957747E-01  0.1149298E+00
       -2   -1    0    0    0  501  0.00000000000E+00  0.00000000000E+00  0.88841468337E+02  0.88841468337E+02  0.00000000000E+00 0. -1.
        2   -1    0    0  502    0  0.00000000000E+00  0.00000000000E+00 -0.59141873498E+03  0.59141873498E+03  0.00000000000E+00 0.  1.
        6    2    1    2  502    0  0.14354324068E+02 -0.11469108889E+03 -0.11061545444E+03  0.23674948289E+03  0.17451202365E+03 0.  0.
       24    2    3    3    0    0 -0.13492727715E+02 -0.41683079297E+02  0.10266022628E+02  0.92735423664E+02  0.81085971541E+02 0.  0.
       -6    2    1    2    0  501 -0.14354324068E+02  0.11469108889E+03 -0.39196181220E+03  0.44351072042E+03  0.17235894063E+03 0.  0.
      -24    2    5    5    0    0 -0.42597341133E+02  0.11913206263E+03 -0.19651338319E+03  0.24592638738E+03  0.76519908652E+02 0.  0.
        5    1    3    3  502    0  0.27847051783E+02 -0.73008009591E+02 -0.12088147707E+03  0.14401405923E+03  0.47000000000E+01 0. -1.
        2    1    4    4  503    0  0.40501492233E+00 -0.61811868787E+02  0.21992909081E+02  0.65609139683E+02  0.00000000000E+00 0. -1.
       -1    1    4    4    0  503 -0.13897742638E+02  0.20128789490E+02 -0.11726886453E+02  0.27126283982E+02  0.00000000000E+00 0.  1.
       -5    1    5    5    0  501  0.28243017065E+02 -0.44409737383E+01 -0.19544842901E+03  0.19758433304E+03  0.47000000000E+01 0.  1.
       13    1    6    6    0    0 -0.49636206267E+02  0.29761408088E+02 -0.69090570848E+02  0.90127694768E+02  0.00000000000E+00 0. -1.
      -14    1    6    6    0    0  0.70388651335E+01  0.89370654538E+02 -0.12742281234E+03  0.15579869261E+03  0.00000000000E+00 0.  1.
</event>
<event>
12   0  0.1523332E-01  0.2242967E+03  0.7957747E-01  0.1137587E+00
       21   -1    0    0  504  503  0.00000000000E+00  0.00000000000E+00  0.69827062494E+03  0.69827062494E+03  0.00000000000E+00 0.  1.
       21   -1    0    0  501  504  0.00000000000E+00  0.00000000000E+00 -0.10982146697E+03  0.10982146697E+03  0.00000000000E+00 0.  1.
        6    2    1    2  501    0 -0.13277347181E+03 -0.47900053944E+02  0.54821565335E+02  0.23089910932E+03  0.17431518774E+03 0.  0.
       24    2    3    3    0    0 -0.10342505181E+03 -0.69250240107E+02 -0.18210244415E+02  0.14921131684E+03  0.80250027876E+02 0.  0.
       -6    2    1    2    0  503  0.13277347181E+03  0.47900053944E+02  0.53362759264E+03  0.57719298259E+03  0.16873091457E+03 0.  0.
      -24    2    5    5    0    0  0.11821046381E+03 -0.22942742390E+02  0.31743171981E+03  0.34917208788E+03  0.81597592041E+02 0.  0.
        5    1    3    3  501    0 -0.29348419998E+02  0.21350186163E+02  0.73031809750E+02  0.81687792484E+02  0.47000000000E+01 0. -1.
      -11    1    4    4    0    0 -0.78462760762E+02 -0.80312905417E+02  0.63888820168E+01  0.11246059495E+03  0.00000000000E+00 0.  1.
       12    1    4    4    0    0 -0.24962291050E+02  0.11062665310E+02 -0.24599126431E+02  0.36750721890E+02  0.00000000000E+00 0. -1.
       -5    1    5    5    0  503  0.14563007997E+02  0.70842796334E+02  0.21619587283E+03  0.22802089471E+03  0.47000000000E+01 0.  1.
        1    1    6    6  502    0  0.16923727590E+02 -0.22848484814E+02  0.19457534393E+02  0.34453758264E+02  0.00000000000E+00 0. -1.
       -2    1    6    6    0  502  0.10128673622E+03 -0.94257576274E-01  0.29797418542E+03  0.31471832961E+03  0.00000000000E+00 0.  1.
</event>
<event>
12   0  0.1523332E-01  0.2711311E+03  0.7957747E-01  0.1108411E+00
       21   -1    0    0  504  503  0.00000000000E+00  0.00000000000E+00  0.65140067717E+03  0.65140067717E+03  0.00000000000E+00 0. -1.
       21   -1    0    0  501  504  0.00000000000E+00  0.00000000000E+00 -0.11216644603E+03  0.11216644603E+03  0.00000000000E+00 0.  1.
        6    2    1    2  501    0  0.19094744887E+03 -0.63531986354E+02  0.22447539924E+03  0.35199614444E+03  0.18169986052E+03 0.  0.
       24    2    3    3    0    0  0.18589188137E+03 -0.32733803795E+01  0.20510836194E+03  0.28832644607E+03  0.80598962663E+02 0.  0.
       -6    2    1    2    0  503 -0.19094744887E+03  0.63531986354E+02  0.31475883190E+03  0.41157097877E+03  0.17268557202E+03 0.  0.
      -24    2    5    5    0    0 -0.21590888893E+03  0.59786762220E+02  0.27064276911E+03  0.36052769136E+03  0.80880173759E+02 0.  0.
        5    1    3    3  501    0  0.50555675005E+01 -0.60258605975E+02  0.19367037297E+02  0.63669698370E+02  0.47000000000E+01 0. -1.
      -13    1    4    4    0    0  0.13226766007E+02  0.24410813972E+02  0.28804115696E+02  0.40006402722E+02  0.00000000000E+00 0.  1.
       14    1    4    4    0    0  0.17266511537E+03 -0.27684194351E+02  0.17630424625E+03  0.24832004334E+03  0.00000000000E+00 0. -1.
       -5    1    5    5    0  503  0.24961440061E+02  0.37452241349E+01  0.44116062787E+02  0.51043287410E+02  0.47000000000E+01 0.  1.
        3    1    6    6  502    0 -0.47569239965E+01  0.23438880907E+02  0.26101773899E+02  0.35402147742E+02  0.00000000000E+00 0. -1.
       -4    1    6    6    0  502 -0.21115196494E+03  0.36347881312E+02  0.24454099521E+03  0.32512554362E+03  0.00000000000E+00 0.  1.
</event>
<event>
12   0  0.1523332E-01  0.2241453E+03  0.7957747E-01  0.1137694E+00
        2   -1    0    0  502    0  0.00000000000E+00  0.00000000000E+00  0.40969622927E+03  0.40969622927E+03  0.00000000000E+00 0.  1.
       -2   -1    0    0    0  501  0.00000000000E+00  0.00000000000E+00 -0.12414225228E+03  0.12414225228E+03  0.00000000000E+00 0. -1.
        6    2    1    2  502    0 -0.49587091376E+02 -0.13495113677E+03  0.11296485672E+03  0.25049026078E+03  0.17121221611E+03 0.  0.
       24    2    3    3    0    0  0.23543876485E+02 -0.63096291559E+02  0.10356257472E+03  0.14742838545E+03  0.80464065426E+02 0.  0.
       -6    2    1    2    0  501  0.49587091376E+02  0.13495113677E+03  0.17258912028E+03  0.28334822076E+03  0.17270935361E+03 0.  0.
      -24    2    5    5    0    0  0.46232040046E+02  0.15719982190E+02  0.32269622489E+02  0.99122880343E+02  0.79996859345E+02 0.  0.
        5    1    3    3  502    0 -0.73130967861E+02 -0.71854845215E+02  0.94022819989E+01  0.10306187534E+03  0.47000000000E+01 0. -1.
      -11    1    4    4    0    0  0.18943224898E+02  0.14354476074E+02  0.97528596575E+01  0.25690757568E+02  0.00000000000E+00 0.  1.
       12    1    4    4    0    0  0.46006515867E+01 -0.77450767633E+02  0.93809715060E+02  0.12173762788E+03  0.00000000000E+00 0. -1.
       -5    1    5    5    0  501  0.33550513302E+01  0.11923115458E+03  0.14031949779E+03  0.18422534042E+03  0.47000000000E+01 0.  1.
        1    1    6    6  503    0  0.80437892692E+01 -0.30750822904E+02  0.21601391692E+01  0.31858779894E+02  0.00000000000E+00 0. -1.
       -2    1    6    6    0  503  0.38188250777E+02  0.46470805094E+02  0.30109483319E+02  0.67264100449E+02  0.00000000000E+00 0.  1.
</event>
<event>
12   0  0.1523332E-01  0.2370440E+03  0.7957747E-01  0.1128926E+00
       21   -1    0    0  501  503  0.00000000000E+00  0.00000000000E+00  0.68474627330E+03  0.68474627330E+03  0.00000000000E+00 0.  1.
       21   -1    0    0  503  504  0.00000000000E+00  0.00000000000E+00 -0.16069250576E+03  0.16069250576E+03  0.00000000000E+00 0. -1.
        6    2    1    2  501    0 -0.11405800356E+03 -0.11510963955E+03  0.55804945892E+03  0.60596948648E+03  0.17181490811E+03 0.  0.
       24    2    3    3    0    0 -0.39882184622E+02 -0.33376659538E+02  0.41012992768E+03  0.42134930920E+03  0.81388529493E+02 0.  0.
       -6    2    1    2    0  504  0.11405800356E+03  0.11510963955E+03 -0.33995691379E+02  0.23946929258E+03  0.17300398192E+03 0.  0.
      -24    2    5    5    0    0  0.10870901140E+03  0.57943086742E+02  0.33983255686E+02  0.15036343575E+03  0.79241723120E+02 0.  0.
        5    1    3    3  501    0 -0.74175818942E+02 -0.81732980008E+02  0.14791953125E+03  0.18462017729E+03  0.47000000000E+01 0. -1.
        2    1    4    4  502    0  0.15181991859E+02 -0.26719816853E+02  0.66322269386E+02  0.73096408297E+02  0.00000000000E+00 0. -1.
       -1    1    4    4    0  502 -0.55064176481E+02 -0.66568426848E+01  0.34380765829E+03  0.34825290090E+03  0.00000000000E+00 0.  1.
       -5    1    5    5    0  504  0.53489921630E+01  0.57166552804E+02 -0.67978947065E+02  0.89105856826E+02  0.47000000000E+01 0.  1.
       13    1    6    6    0    0  0.64421806289E+02  0.58861200148E+02  0.53065825311E+02  0.10213124803E+03  0.00000000000E+00 0. -1.
      -14    1    6    6    0    0  0.44287205112E+02 -0.91811340598E+00 -0.19082569625E+02  0.48232187721E+02  0.00000000000E+00 0.  1.
</event>
<event>
12   0  0.1523332E-01  0.1901072E+03  0.7957747E-01  0.1164316E+00
        2   -1    0    0  502    0  0.00000000000E+00  0.00000000000E+00  0.36210491513E+03  0.36210491513E+03  0.00000000000E+00 0. -1.
       -2   -1    0    0    0  501  0.00000000000E+00  0.00000000000E+00 -0.10092225164E+03  0.10092225164E+03  0.00000000000E+00 0.  1.
        6    2    1    2  502    0  0.65175226248E+01 -0.73597480594E+02  0.10522806650E+03  0.21586277214E+03  0.17339181978E+03 0.  0.
       24    2    3    3    0    0  0.36443115406E+01 -0.24840864164E+02 -0.16793643422E+02  0.84345280221E+02  0.78751192354E+02 0.  0.
       -6    2    1    2    0  501 -0.65175226248E+01  0.73597480594E+02  0.15595459699E+03  0.24716439463E+03  0.17694443873E+03 0.  0.
      -24    2    5    5    0    0 -0.32304312042E+02  0.10164438577E+03  0.16168347519E+03  0.20835077017E+03  0.76768141488E+02 0.  0.
        5    1    3    3  502    0  0.28732110843E+01 -0.48756616430E+02  0.12202170992E+03  0.13151749192E+03  0.47000000000E+01 0. -1.
      -13    1    4    4    0    0  0.16697390866E+02 -0.49462398025E+02 -0.20790903297E+02  0.56192466933E+02  0.00000000000E+00 0.  1.
       14    1    4    4    0    0 -0.13053079325E+02  0.24621533861E+02  0.39972598757E+01  0.28152813288E+02  0.00000000000E+00 0. -1.
       -5    1    5    5    0  501  0.25786789418E+02 -0.28046905172E+02 -0.57288781939E+01  0.38813624458E+02  0.47000000000E+01 0.  1.
        1    1    6    6  503    0  0.20536933426E+02  0.52019333926E+01  0.31105137066E+02  0.37634496109E+02  0.00000000000E+00 0. -1.
       -2    1    6    6    0  503 -0.52841245468E+02  0.96442452374E+02  0.13057833812E+03  0.17071627406E+03  0.00000000000E+00 0.  1.
</event>
<event>
12   0  0.1523332E-01  0.2873315E+03  0.7957747E-01  0.1099779E+00
       21   -1    0    0  501  503  0.00000000000E+00  0.00000000000E+00  0.77878853589E+03  0.77878853589E+03  0.00000000000E+00 0. -1.
       21   -1    0    0  503  504  0.00000000000E+00  0.00000000000E+00 -0.10536852648E+03  0.10536852648E+03  0.00000000000E+00 0. -1.
        6    2    1    2  501    0  0.22190054757E+03 -0.48365753992E+02  0.36597356839E+03  0.46529134923E+03  0.17601218063E+03 0.  0.
       24    2    3    3    0    0  0.70853520814E+02  0.34824167902E+02  0.17596433748E+03  0.20865665704E+03  0.79631704640E+02 0.  0.
       -6    2    1    2    0  504 -0.22190054757E+03  0.48365753992E+02  0.30744644101E+03  0.41886571315E+03  0.17130695371E+03 0.  0.
      -24    2    5    5    0    0 -0.19795548390E+03  0.75205957907E+02  0.30850247415E+03  0.38257566181E+03  0.79674655595E+02 0.  0.
        5    1    3    3  501    0  0.15104702676E+03 -0.83189921894E+02  0.19000923092E+03  0.25663469218E+03  0.47000000000E+01 0. -1.
      -11    1    4    4    0    0  0.41716406203E+02  0.31818431197E+02  0.17110052553E+03  0.17896385375E+03  0.00000000000E+00 0.  1.
       12    1    4    4    0    0  0.29137114611E+02  0.30057367050E+01  0.48638119413E+01  0.29692803296E+02  0.00000000000E+00 0. -1.
       -5    1    5    5    0  504 -0.23945063667E+02 -0.26840203915E+02 -0.10560331320E+01  0.36290051339E+02  0.47000000000E+01 0.  1.
        3    1    6    6  502    0 -0.15333089926E+03  0.78114964481E+02  0.28267397876E+03  0.33093336279E+03  0.00000000000E+00 0. -1.
       -4    1    6    6    0  502 -0.44624584641E+02 -0.29090065746E+01  0.25828495389E+02  0.51642299016E+02  0.00000000000E+00 0.  1.
</event>
<event>
12   0  0.1523332E-01  0.2117162E+03  0.7957747E-01  0.1146776E+00
       21   -1    0    0  504  503  0.00000000000E+00  0.00000000000E+00  0.73042983428E+02  0.73042983428E+02  0.00000000000E+00 0.  1.
       21   -1    0    0  501  504  0.00000000000E+00  0.00000000000E+00 -0.61281630331E+03  0.61281630331E+03  0.00000000000E+00 0.  1.
        6    2    1    2  501    0  0.75063315228E+02 -0.91836874360E+02 -0.29254389627E+03  0.36036558898E+03  0.17381862297E+03 0.  0.
       24    2    3    3    0    0  0.35664571801E+02  0.18011590822E+02 -0.16151996557E+03  0.18484263691E+03  0.80509142690E+02 0.  0.
       -6    2    1    2    0  503 -0.75063315228E+02  0.91836874360E+02 -0.24722942361E+03  0.32549369776E+03  0.17537173830E+03 0.  0.
      -24    2    5    5    0    0 -0.41841335740E+02  0.82195151127E+02 -0.62753109346E+02  0.13774316308E+03  0.80799047005E+02 0.  0.
        5    1    3    3  501    0  0.39398743427E+02 -0.10984846518E+03 -0.13102393070E+03  0.17552295207E+03  0.47000000000E+01 0. -1.
        4    1    4    4  502    0 -0.74355926769E+01  0.28251892462E+02 -0.12209004710E+03  0.12553659653E+03  0.00000000000E+00 0. -1.
       -3    1    4    4    0  502  0.43100164478E+02 -0.10240301640E+02 -0.39429918471E+02  0.59306040386E+02  0.00000000000E+00 0.  1.
       -5    1    5    5    0  503 -0.33221979489E+02  0.96417232326E+01 -0.18447631426E+03  0.18775053468E+03  0.47000000000E+01 0.  1.
       11    1    6    6    0    0 -0.47535451172E+02  0.35482058933E+02 -0.15489404546E-01  0.59317753364E+02  0.00000000000E+00 0. -1.
      -12    1    6    6    0    0  0.56941154321E+01  0.46713092194E+02 -0.62737619942E+02  0.78425409714E+02  0.00000000000E+00 0.  1.
</event>
<event>
12   0  0.1523332E-01  0.1879904E+03  0.7957747E-01  0.1166171E+00
       21   -1    0    0  501  503  0.00000000000E+00  0.00000000000E+00  0.69754304320E+02  0.69754304320E+02  0.00000000000E+00 0.  1.
       21   -1    0    0  503  504  0.00000000000E+00  0.00000000000E+00 -0.60378853187E+03  0.60378853187E+03  0.00000000000E+00 0.  1.
        6    2    1    2  501    0  0.63927215403E+01 -0.69999351755E+02 -0.12968904667E+03  0.22838483829E+03  0.17435483761E+03 0.  0.
       24    2    3    3    0    0 -0.41529148104E+02 -0.87891509219E+02 -0.54881616506E+02  0.13763861800E+03  0.80515897809E+02 0.  0.
       -6    2    1    2    0  504 -0.63927215403E+01  0.69999351755E+02 -0.40434518089E+03  0.44515799790E+03  0.17242343709E+03 0.  0.
      -24    2    5    5    0    0 -0.58216200003E+02  0.72347846009E+02 -0.16804381043E+03  0.20318358599E+03  0.66494440553E+02 0.  0.
        5    1    3    3  501    0  0.47921869644E+02  0.17892157465E+02 -0.74807430161E+02  0.90746220286E+02  0.47000000000E+01 0. -1.
        2    1    4    4  502    0 -0.36097987807E+02 -0.48280441603E+02 -0.72207980690E+02  0.94064117709E+02  0.00000000000E+00 0. -1.
       -1    1    4    4    0  502 -0.54311602970E+01 -0.39611067616E+02  0.17326364184E+02  0.43574500292E+02  0.00000000000E+00 0.  1.
       -5    1    5    5    0  504  0.51823478463E+02 -0.23484942542E+01 -0.23630137045E+03  0.24197441192E+03  0.47000000000E+01 0.  1.
       11    1    6    6    0    0  0.13180996423E+02  0.85412282828E+01 -0.10738145035E+02  0.19026271471E+02  0.00000000000E+00 0. -1.
      -12    1    6    6    0    0 -0.71397196426E+02  0.63806617726E+02 -0.15730566540E+03  0.18415731452E+03  0.00000000000E+00 0.  1.
</event>
<event>
12   0  0.1523332E-01  0.1998277E+03  0.7957747E-01  0.1156125E+00
       21   -1    0    0  501  503  0.00000000000E+00  0.00000000000E+00  0.29726302254E+03  0.29726302254E+03  0.00000000000E+00 0. -1.
       21   -1    0    0  503  504  0.00000000000E+00  0.00000000000E+00 -0.13956968162E+03  0.13956968162E+03  0.00000000000E+00 0. -1.
        6    2    1    2  501    0 -0.33397540573E+02 -0.92215167141E+02  0.12587359139E+03  0.23448745050E+03  0.17181725951E+03 0.  0.
       24    2    3    3    0    0 -0.57799092121E+02  0.55749924235E+01  0.61320344404E+02  0.11470613843E+03  0.77624081083E+02 0.  0.
       -6    2    1    2    0  504  0.33397540573E+02  0.92215167141E+02  0.31819749530E+02  0.20234525366E+03  0.17410362561E+03 0.  0.
      -24    2    5    5    0    0  0.82320634532E+02  0.63659098179E+02 -0.98100670141E+01  0.13188924027E+03  0.80432373046E+02 0.  0.
        5    1    3    3  501    0  0.24401551548E+02 -0.97790159565E+02  0.64553246985E+02  0.11978131207E+03  0.47000000000E+01 0. -1.
      -11    1    4    4    0    0 -0.72834513846E+01 -0.80889706106E+01 -0.17194269618E+02  0.20350012710E+02  0.00000000000E+00 0.  1.
       12    1    4    4    0    0 -0.50515640736E+02  0.13663963034E+02  0.78514614023E+02  0.94356125715E+02  0.00000000000E+00 0. -1.
       -5    1    5    5    0  504 -0.48923093959E+02  0.28556068962E+02  0.41629816544E+02  0.70456013389E+02  0.47000000000E+01 0.  1.
        1    1    6    6  502    0  0.76723183569E+02  0.41540027432E+02  0.24557732392E+02  0.90637205364E+02  0.00000000000E+00 0. -1.
       -2    1    6    6    0  502  0.55974509633E+01  0.22119070747E+02 -0.34367799406E+02  0.41252034907E+02  0.00000000000E+00 0.  1.
</event>
<event>
12   0  0.1523332E-01  0.2897788E+03  0.7957747E-01  0.1098529E+00
       -1   -1    0    0    0  501  0.00000000000E+00  0.00000000000E+00  0.92401892410E+02  0.92401892410E+02  0.00000000000E+00 0. -1.
        1   -1    0    0  502    0  0.00000000000E+00  0.00000000000E+00 -0.93861586806E+03  0.93861586806E+03  0.00000000000E+00 0.  1.
        6    2    1    2  502    0 -0.22367198551E+03  0.57747504092E+02 -0.33019445614E+03  0.43885641416E+03  0.17378907348E+03 0.  0.
       24    2    3    3    0    0 -0.21719160941E+03  0.78837694149E+01 -0.22757341038E+03  0.32448178261E+03  0.79148096098E+02 0.  0.
       -6    2    1    2    0  501  0.22367198551E+03 -0.57747504092E+02 -0.51601951952E+03  0.59216134631E+03  0.17611071577E+03 0.  0.
      -24    2    5    5    0    0  0.20286105227E+03 -0.14781126343E+02 -0.31165321662E+03  0.38224021751E+03  0.87228253585E+02 0.  0.
        5    1    3    3  502    0 -0.64803760941E+01  0.49863734678E+02 -0.10262104575E+03  0.11437463155E+03  0.47000000000E+01 0. -1.
        4    1    4    4  503    0 -0.19324225169E+03  0.86399031330E+01 -0.15444770927E+03  0.24753042372E+03  0.00000000000E+00 0. -1.
       -3    1    4    4    0  503 -0.23949357718E+02 -0.75613371817E+00 -0.73125701109E+02  0.76951358896E+02  0.00000000000E+00 0.  1.
       -5    1    5    5    0  501  0.20810933237E+02 -0.42966377750E+02 -0.20436630289E+03  0.20992112880E+03  0.47000000000E+01 0.  1.
       13    1    6    6    0    0  0.62944823300E+01  0.14731272117E+02 -0.49641255192E+01  0.16771208310E+02  0.00000000000E+00 0. -1.
      -14    1    6    6    0    0  0.19656656994E+03 -0.29512398460E+02 -0.30668909110E+03  0.36546900920E+03  0.00000000000E+00 0.  1.
</event>
<event>
12   0  0.1523332E-01  0.1772642E+03  0.7957747E-01  0.1176002E+00
       21   -1    0    0  501  503  0.00000000000E+00  0.00000000000E+00  0.94138308205E+02  0.94138308205E+02  0.00000000000E+00 0. -1.
       21   -1    0    0  503  504  0.00000000000E+00  0.00000000000E+00 -0.33466112787E+03  0.33466112787E+03  0.00000000000E+00 0.  1.
        6    2    1    2  501    0  0.32912160097E+02  0.21511628054E+02 -0.10684270512E+03  0.20697329954E+03  0.17284855412E+03 0.  0.
       24    2    3    3    0    0 -0.26211799734E+02  0.17522823490E+02 -0.11830162378E+03  0.14643446899E+03  0.80334747968E+02 0.  0.
       -6    2    1    2    0  504 -0.32912160097E+02 -0.21511628054E+02 -0.13368011454E+03  0.22182613653E+03  0.17259925087E+03 0.  0.
      -24    2    5    5    0    0 -0.50989037316E+02  0.10541315052E+02 -0.14539309440E+02  0.97043180596E+02  0.80591476793E+02 0.  0.
        5    1    3    3  501    0  0.59123959831E+02  0.39888045640E+01  0.11458918657E+02  0.60538830553E+02  0.47000000000E+01 0. -1.
        2    1    4    4  502    0  0.20236219799E+02 -0.18426903145E+02 -0.42303198741E+02  0.50384679964E+02  0.00000000000E+00 0. -1.
       -1    1    4    4    0  502 -0.46448019533E+02  0.35949726635E+02 -0.75998425036E+02  0.96049789025E+02  0.00000000000E+00 0.  1.
       -5    1    5    5    0  504  0.18076877220E+02 -0.32052943106E+02 -0.11914080510E+03  0.12478295593E+03  0.47000000000E+01 0.  1.
       11    1    6    6    0    0 -0.63227276323E+02 -0.12926636380E+02 -0.24119870094E+02  0.68895243179E+02  0.00000000000E+00 0. -1.
      -12    1    6    6    0    0  0.12238239007E+02  0.23467951432E+02  0.95805606539E+01  0.28147937417E+02  0.00000000000E+00 0.  1.
</event>
<event>
12   0  0.1523332E-01  0.1940628E+03  0.7957747E-01  0.1160919E+00
       21   -1    0    0  501  503  0.00000000000E+00  0.00000000000E+00  0.13457177984E+03  0.13457177984E+03  0.00000000000E+00 0.  1.
       21   -1    0    0  503  504  0.00000000000E+00  0.00000000000E+00 -0.65297567452E+03  0.65297567452E+03  0.00000000000E+00 0.  1.
        6    2    1    2  501    0 -0.13298521851E+02 -0.86332900429E+02  0.38649685804E+02  0.19787417137E+03  0.17329214957E+03 0.  0.
       24    2    3    3    0    0 -0.24676437772E+02 -0.10514667206E+03  0.76370659755E+02  0.15396088352E+03  0.78782782105E+02 0.  0.
       -6    2    1    2    0  504  0.13298521851E+02  0.86332900429E+02 -0.55705358048E+03  0.58967328299E+03  0.17255627711E+03 0.  0.
      -24    2    5    5    0    0  0.54080271927E+02  0.10337701279E+03 -0.34185487743E+03  0.36993201536E+03  0.79833928773E+02 0.  0.
        5    1    3    3  501    0  0.11377915921E+02  0.18813771631E+02 -0.37720973951E+02  0.43913287847E+02  0.47000000000E+01 0. -1.
      -11    1    4    4    0    0  0.11126716761E+02 -0.31672578241E+02  0.62659507233E+02  0.71085651752E+02  0.00000000000E+00 0.  1.
       12    1    4    4    0    0 -0.35803154533E+02 -0.73474093819E+02  0.13711152522E+02  0.82875231768E+02  0.00000000000E+00 0. -1.
       -5    1    5    5    0  504 -0.40781750077E+02 -0.17044112357E+02 -0.21519870305E+03  0.21974126763E+03  0.47000000000E+01 0.  1.
        3    1    6    6  502    0  0.36297430234E+01  0.83389873974E+02 -0.16456025811E+03  0.18451862959E+03  0.00000000000E+00 0. -1.
       -4    1    6    6    0  502  0.50450528904E+02  0.19987138812E+02 -0.17729461932E+03  0.18541338577E+03  0.00000000000E+00 0.  1.
</event>
<event>
12   0  0.1523332E-01  0.1770418E+03  0.7957747E-01  0.1176214E+00
       21   -1    0    0  501  503  0.00000000000E+00  0.00000000000E+00  0.11511243944E+03  0.11511243944E+03  0.00000000000E+00 0.  1.
       21   -1    0    0  503  504  0.00000000000E+00  0.00000000000E+00 -0.37473713910E+03  0.37473713910E+03  0.00000000000E+00 0.  1.
        6    2    1    2  501    0 -0.16249558114E+02  0.35717454740E+02 -0.15344553763E+01  0.17687294439E+03  0.17245839844E+03 0.  0.
       24    2    3    3    0    0 -0.69536919966E+02 -0.18177763940E+01  0.20563158335E+02  0.10788866327E+03  0.79865090200E+02 0.  0.
       -6    2    1    2    0  504  0.16249558114E+02 -0.35717454740E+02 -0.25809024428E+03  0.31297663415E+03  0.17263839267E+03 0.  0.
      -24    2    5    5    0    0  0.46609449138E+01 -0.53306831114E+02 -0.60300531624E+02  0.11401296272E+03  0.80619221680E+02 0.  0.
        5    1    3    3  501    0  0.53287361852E+02  0.37535231134E+02 -0.22097613711E+02  0.68984281116E+02  0.47000000000E+01 0. -1.
        2    1    4    4  502    0 -0.70356431556E+02  0.28261169541E+02  0.14574843782E+02  0.77208466093E+02  0.00000000000E+00 0. -1.
       -1    1    4    4    0  502  0.81951159025E+00 -0.30078945935E+02  0.59883145525E+01  0.30680197179E+02  0.00000000000E+00 0.  1.
       -5    1    5    5    0  504  0.11588613200E+02  0.17589376375E+02 -0.19778971265E+03  0.19896367143E+03  0.47000000000E+01 0.  1.
       13    1    6    6    0    0 -0.94458029972E+01 -0.57779730417E+02 -0.73648211071E+02  0.94083895727E+02  0.00000000000E+00 0. -1.
      -14    1    6    6    0    0  0.14106747911E+02  0.44728993026E+01  0.13347679446E+02  0.19929066998E+02  0.00000000000E+00 0.  1.
</event>
<event>
12   0  0.1523332E-01  0.2724587E+03  0.7957747E-01  0.1107680E+00
       -2   -1    0    0    0  501  0.00000000000E+00  0.00000000000E+00  0.30856018107E+02  0.30856018107E+02  0.00000000000E+00 0.  1.
        2   -1    0    0  502    0  0.00000000000E+00  0.00000000000E+00 -0.24338625997E+04  0.24338625997E+04  0.00000000000E+00 0. -1.
        6    2    1    2  502    0  0.10124098358E+03  0.18467248047E+03 -0.13312409432E+04  0.13587197546E+04  0.17193970128E+03 0.  0.
       24    2    3    3    0    0  0.49323479943E+02  0.16241117727E+03 -0.69549053034E+03  0.72044734389E+03  0.80790478165E+02 0.  0.
       -6    2    1    2    0  501 -0.10124098358E+03 -0.18467248047E+03 -0.10717656384E+04  0.11059988632E+04  0.17377640804E+03 0.  0.
      -24    2    5    5    0    0 -0.48913082865E+01 -0.19245689079E+02 -0.30311126349E+03  0.31384930581E+03  0.78934322432E+02 0.  0.
        5    1    3    3  502    0  0.51917503635E+02  0.22261303199E+02 -0.63575041288E+03  0.63827241072E+03  0.47000000000E+01 0. -1.
        4    1    4    4  503    0 -0.10966517123E+02  0.96657321439E+02 -0.40784203848E+03  0.41928275738E+03  0.00000000000E+00 0. -1.
       -3    1    4    4    0  503  0.60289997066E+02  0.65753855827E+02 -0.28764849185E+03  0.30116458651E+03  0.00000000000E+00 0.  1.
       -5    1    5    5    0  501 -0.96349675292E+02 -0.16542679139E+03 -0.76865437488E+03  0.79214955738E+03  0.47000000000E+01 0.  1.
       13    1    6    6    0    0  0.16520112659E+01 -0.49566515079E+02 -0.20692424257E+03  0.21278442312E+03  0.00000000000E+00 0. -1.
      -14    1    6    6    0    0 -0.65433195524E+01  0.30320826000E+02 -0.96187020925E+02  0.10106488270E+03  0.00000000000E+00 0.  1.
</event>
<event>
12   0  0.1523332E-01  0.1839574E+03  0.7957747E-01  0.1169781E+00
       21   -1    0    0  504  503  0.00000000000E+00  0.00000000000E+00  0.13232563261E+03  0.13232563261E+03  0.00000000000E+00 0.  1.
       21   -1    0    0  501  504  0.00000000000E+00  0.00000000000E+00 -0.43312977631E+03  0.43312977631E+03  0.00000000000E+00 0.  1.
        6    2    1    2  501    0 -0.29802109692E+02  0.52149551731E+02 -0.33178164935E+03  0.37890804047E+03  0.17287133596E+03 0.  0.
       24    2    3    3    0    0 -0.29557940554E+01  0.64274123929E+02 -0.33350995950E+03  0.34902816479E+03  0.80323514670E+02 0.  0.
       -6    2    1    2    0  503  0.29802109692E+02 -0.52149551731E+02  0.30977505648E+02  0.18654736846E+03  0.17387516595E+03 0.  0.
      -24    2    5    5    0    0  0.13824898651E+02 -0.23218665870E+02 -0.46258408214E+02  0.10240615490E+03  0.87275116515E+02 0.  0.
        5    1    3    3  501    0 -0.26846315636E+02 -0.12124572198E+02  0.17283101499E+01  0.29879875673E+02  0.47000000000E+01 0. -1.
      -11    1    4    4    0    0 -0.17854164174E+02 -0.12931945769E+02 -0.46816833161E+02  0.51747678856E+02  0.00000000000E+00 0.  1.
       12    1    4    4    0    0  0.14898370118E+02  0.77206069697E+02 -0.28669312634E+03  0.29728048594E+03  0.00000000000E+00 0. -1.
       -5    1    5    5    0  503  0.15977211041E+02 -0.28930885861E+02  0.77235913862E+02  0.84141213561E+02  0.47000000000E+01 0.  1.
        3    1    6    6  502    0 -0.10036800098E+02 -0.35164082285E+02  0.11868904550E+02  0.38446338374E+02  0.00000000000E+00 0. -1.
       -4    1    6    6    0  502  0.23861698749E+02  0.11945416415E+02 -0.58127312764E+02  0.63959816523E+02  0.00000000000E+00 0.  1.
</event>
<event>
12   0  0.1523332E-01  0.1965275E+03  0.7957747E-01  0.1158847E+00
       21   -1    0    0  504  503  0.00000000000E+00  0.00000000000E+00  0.12694181697E+03  0.12694181697E+03  0.00000000000E+00 0.  1.
       21   -1    0    0  501  504  0.00000000000E+00  0.00000000000E+00 -0.30300890048E+03  0.30300890048E+03  0.00000000000E+00 0.  1.
        6    2    1    2  501    0 -0.93053238137E+02 -0.58145410836E+01 -0.97438874118E+02  0.21935677287E+03  0.17300388897E+03 0.  0.
       24    2    3    3    0    0 -0.49916286176E+02  0.49633975427E+02 -0.10360461940E+03  0.14867833895E+03  0.80100962341E+02 0.  0.
       -6    2    1    2    0  503  0.93053238137E+02  0.58145410836E+01 -0.78628209393E+02  0.21059394457E+03  0.17168197390E+03 0.  0.
      -24    2    5    5    0    0  0.12166651419E+03  0.23949196300E+02 -0.34568755749E+02  0.15481840565E+03  0.86008343627E+02 0.  0.
        5    1    3    3  501    0 -0.43136951961E+02 -0.55448516510E+02  0.61657452835E+01  0.70678433928E+02  0.47000000000E+01 0. -1.
        2    1    4    4  502    0 -0.21724767405E+01  0.33624766555E+02 -0.90610153008E+02  0.96672355972E+02  0.00000000000E+00 0. -1.
       -1    1    4    4    0  502 -0.47743809436E+02  0.16009208872E+02 -0.12994466393E+02  0.52005982973E+02  0.00000000000E+00 0.  1.
       -5    1    5    5    0  503 -0.28613276058E+02 -0.18134655216E+02 -0.44059453644E+02  0.55775538921E+02  0.47000000000E+01 0.  1.
       13    1    6    6    0    0  0.12813776212E+02 -0.26417111824E+02  0.19954032203E+01  0.29428528538E+02  0.00000000000E+00 0. -1.
      -14    1    6    6    0    0  0.10885273798E+03  0.50366308123E+02 -0.36564158970E+02  0.12538987711E+03  0.00000000000E+00 0.  1.
</event>
<event>
12   0  0.1523332E-01  0.1777316E+03  0.7957747E-01  0.1175558E+00
        3   -1    0    0  502    0  0.00000000000E+00  0.00000000000E+00  0.11620247362E+03  0.11620247362E+03  0.00000000000E+00 0. -1.
       -3   -1    0    0    0  501  0.00000000000E+00  0.00000000000E+00 -0.28386430126E+03  0.28386430126E+03  0.00000000000E+00 0.  1.
        6    2    1    2  502    0  0.93754483537E+01 -0.39485948416E+02 -0.42758738689E+02  0.18300988759E+03  0.17325492797E+03 0.  0.
       24    2    3    3    0    0 -0.39237212182E+01 -0.11086485886E+02  0.41523479157E+02  0.92960014585E+02  0.82335042558E+02 0.  0.
       -6    2    1    2    0  501 -0.93754483537E+01  0.39485948416E+02 -0.12490308895E+03  0.21705688729E+03  0.17281745148E+03 0.  0.
      -24    2    5    5    0    0  0.37462659924E+02  0.58517600936E+02 -0.12726620498E+03  0.16622691088E+03  0.81283076110E+02 0.  0.
        5    1    3    3  502    0  0.13299169572E+02 -0.28399462530E+02 -0.84282217845E+02  0.90049873005E+02  0.47000000000E+01 0. -1.
        4    1    4    4  503    0 -0.38967128142E+02 -0.39541847880E-01  0.40500259111E+02  0.56202398767E+02  0.00000000000E+00 0. -1.
       -3    1    4    4    0  503  0.35043406923E+02 -0.11046944038E+02  0.10232200459E+01  0.36757615818E+02  0.00000000000E+00 0.  1.
       -5    1    5    5    0  501 -0.46838108277E+02 -0.19031652520E+02  0.23631160301E+01  0.50829976412E+02  0.47000000000E+01 0.  1.
       13    1    6    6    0    0  0.23259880203E+02  0.44777484002E+02 -0.15584323472E+02  0.52810190671E+02  0.00000000000E+00 0. -1.
      -14    1    6    6    0    0  0.14202779721E+02  0.13740116934E+02 -0.11168188151E+03  0.11341672021E+03  0.00000000000E+00 0.  1.
</event>
<event>
12   0  0.1523332E-01  0.1760587E+03  0.7957747E-01  0.1177154E+00
       21   -1    0    0  501  503  0.00000000000E+00  0.00000000000E+00  0.26437647306E+03  0.26437647306E+03  0.00000000000E+00 0.  1.
       21   -1    0    0  503  504  0.00000000000E+00  0.00000000000E+00 -0.19102784429E+03  0.19102784429E+03  0.00000000000E+00 0.  1.
        6    2    1    2  501    0  0.29428262773E+02 -0.60576850038E+01  0.17879811723E+03  0.25018183844E+03  0.17239335069E+03 0.  0.
       24    2    3    3    0    0  0.52300476182E+02  0.34007499883E+02  0.17619631429E+03  0.20373599293E+03  0.81063948763E+02 0.  0.
       -6    2    1    2    0  504 -0.29428262773E+02  0.60576850038E+01 -0.10544948847E+03  0.20522247891E+03  0.17347608779E+03 0.  0.
      -24    2    5    5    0    0 -0.34855741524E+02  0.39822665437E+02 -0.36415206991E+01  0.97721391799E+02  0.82069740723E+02 0.  0.
        5    1    3    3  501    0 -0.22872213410E+02 -0.40065184887E+02  0.26018029413E+01  0.46445845506E+02  0.47000000000E+01 0. -1.
        4    1    4    4  502    0  0.36764964308E+02  0.48210482694E+02  0.58771106088E+02  0.84439067694E+02  0.00000000000E+00 0. -1.
       -3    1    4    4    0  502  0.15535511874E+02 -0.14202982811E+02  0.11742520820E+03  0.11929692524E+03  0.00000000000E+00 0.  1.
       -5    1    5    5    0  504  0.54274787516E+01 -0.33764980434E+02 -0.10180796777E+03  0.10750108711E+03  0.47000000000E+01 0.  1.
       11    1    6    6    0    0 -0.63789892137E+01  0.19670440200E+02  0.38082404305E+02  0.43334596325E+02  0.00000000000E+00 0. -1.
      -12    1    6    6    0    0 -0.28476752310E+02  0.20152225237E+02 -0.41723925004E+02  0.54386795474E+02  0.00000000000E+00 0.  1.
</event>
<event>
12   0  0.1523332E-01  0.1826695E+03  0.7957747E-01  0.1170955E+00
       21   -1    0    0  504  503  0.00000000000E+00  0.00000000000E+00  0.16741372121E+03  0.16741372121E+03  0.00000000000E+00 0. -1.
       21   -1    0    0  501  504  0.00000000000E+00  0.00000000000E+00 -0.31952159346E+03  0.31952159346E+03  0.00000000000E+00 0. -1.
        6    2    1    2  501    0 -0.34099156764E+02  0.42012778313E+02 -0.22629233477E+03  0.29082015287E+03  0.17447152922E+03 0.  0.
       24    2    3    3    0    0  0.21172550624E+02  0.37368508724E+02 -0.44378837509E+02  0.10058045837E+03  0.79386806482E+02 0.  0.
       -6    2    1    2    0  503  0.34099156764E+02 -0.42012778313E+02  0.74184462520E+02  0.19611516179E+03  0.17329165061E+03 0.  0.
      -24    2    5    5    0    0 -0.18873463058E+02 -0.32673171904E+01  0.96054624906E+02  0.12677755864E+03  0.80493325430E+02 0.  0.
        5    1    3    3  501    0 -0.55271707388E+02  0.46442695893E+01 -0.18191349726E+03  0.19023969450E+03  0.47000000000E+01 0. -1.
        4    1    4    4  502    0 -0.22233023694E+02  0.40708636776E+02 -0.18514203203E+02  0.49942728910E+02  0.00000000000E+00 0. -1.
       -3    1    4    4    0  502  0.43405574318E+02 -0.33401280523E+01 -0.25864634306E+02  0.50637729461E+02  0.00000000000E+00 0.  1.
       -5    1    5    5    0  503  0.52972619822E+02 -0.38745461123E+02 -0.21870162387E+02  0.69337603155E+02  0.47000000000E+01 0.  1.
       13    1    6    6    0    0 -0.38893956606E+02  0.25878160372E+02  0.46620412180E+02  0.65999105119E+02  0.00000000000E+00 0. -1.
      -14    1    6    6    0    0  0.20020493548E+02 -0.29145477562E+02  0.49434212726E+02  0.60778453518E+02  0.00000000000E+00 0.  1.
</event>
<event>
12   0  0.1523332E-01  0.1946928E+03  0.7957747E-01  0.1160386E+00
       21   -1    0    0  501  503  0.00000000000E+00  0.00000000000E+00  0.42437072813E+03  0.42437072813E+03  0.00000000000E+00 0.  1.
       21   -1    0    0  503  504  0.00000000000E+00  0.00000000000E+00 -0.11187463204E+03  0.11187463204E+03  0.00000000000E+00 0.  1.
        6    2    1    2  501    0  0.20805203525E+01  0.89727672400E+02  0.28235556127E+03  0.34297221200E+03  0.17277121133E+03 0.  0.
       24    2    3    3    0    0  0.16363473764E+02  0.61303739487E+02  0.29250944582E+03  0.30925108966E+03  0.77772416795E+02 0.  0.
       -6    2    1    2    0  504 -0.20805203525E+01 -0.89727672400E+02  0.30140534817E+02  0.19327314817E+03  0.16849532398E+03 0.  0.
      -24    2    5    5    0    0  0.20899945913E+02 -0.11035517704E+03 -0.15229608404E+02  0.13819015920E+03  0.79053818940E+02 0.  0.
        5    1    3    3  501    0 -0.14282953411E+02  0.28423932914E+02 -0.10153884548E+02  0.33721122340E+02  0.47000000000E+01 0. -1.
      -11    1    4    4    0    0 -0.14266961092E+02  0.61617955644E+02  0.13897092600E+03  0.15268672800E+03  0.00000000000E+00 0.  1.
       12    1    4    4    0    0  0.30630434855E+02 -0.31421615777E+00  0.15353851983E+03  0.15656436166E+03  0.00000000000E+00 0. -1.
       -5    1    5    5    0  504 -0.22980466266E+02  0.20627504639E+02  0.45370143221E+02  0.55082988965E+02  0.47000000000E+01 0.  1.
        1    1    6    6  502    0  0.19808342654E+02  0.45006571806E+01  0.64262514403E+01  0.21305470221E+02  0.00000000000E+00 0. -1.
       -2    1    6    6    0  502  0.10916032591E+01 -0.11485583422E+03 -0.21655859844E+02  0.11688468898E+03  0.00000000000E+00 0.  1.
</event>
<event>
12   0  0.1523332E-01  0.2717641E+03  0.7957747E-01  0.1108062E+00
        2   -1    0    0  502    0  0.00000000000E+00  0.00000000000E+00  0.42267138587E+03  0.42267138587E+03  0.00000000000E+00 0. -1.
       -2   -1    0    0    0  501  0.00000000000E+00  0.00000000000E+00 -0.18809821388E+03  0.18809821388E+03  0.00000000000E+00 0.  1.
        6    2    1    2  502    0  0.16997320508E+03 -0.12757039177E+03  0.19948363720E+03  0.33880673386E+03  0.17271706950E+03 0.  0.
       24    2    3    3    0    0  0.10435625309E+02 -0.55876031875E+02  0.80223764181E+02  0.12705846843E+03  0.80479617585E+02 0.  0.
       -6    2    1    2    0  501 -0.16997320508E+03  0.12757039177E+03  0.35089534791E+02  0.27196286589E+03  0.16603442314E+03 0.  0.
      -24    2    5    5    0    0 -0.16216525829E+03  0.52230304158E+02  0.49745281592E+02  0.19467138027E+03  0.79979857388E+02 0.  0.
        5    1    3    3  502    0  0.15953757977E+03 -0.71694359898E+02  0.11925987302E+03  0.21174826543E+03  0.47000000000E+01 0. -1.
      -13    1    4    4    0    0  0.32340278968E+01 -0.38987073804E+02 -0.53967900319E+01  0.39491470001E+02  0.00000000000E+00 0.  1.
       14    1    4    4    0    0  0.72015974124E+01 -0.16888958071E+02  0.85620554213E+02  0.87566998429E+02  0.00000000000E+00 0. -1.
       -5    1    5    5    0  501 -0.78079467920E+01  0.75340087614E+02 -0.14655746800E+02  0.77291485618E+02  0.47000000000E+01 0.  1.
        1    1    6    6  503    0 -0.10786109344E+03  0.54981157072E+02  0.66042475082E+02  0.13790776492E+03  0.00000000000E+00 0. -1.
       -2    1    6    6    0  503 -0.54304164853E+02 -0.27508529140E+01 -0.16297193491E+02  0.56763615352E+02  0.00000000000E+00 0.  1.
</event>
<event>
12   0  0.1523332E-01  0.1855382E+03  0.7957747E-01  0.1168354E+00
       21   -1    0    0  504  503  0.00000000000E+00  0.00000000000E+00  0.19476670289E+03  0.19476670289E+03  0.00000000000E+00 0. -1.
       21   -1    0    0  501  504  0.00000000000E+00  0.00000000000E+00 -0.19080667370E+03  0.19080667370E+03  0.00000000000E+00 0.  1.
        6    2    1    2  501    0  0.39840932677E+02  0.53407099136E+02  0.64905814939E+02  0.19028177018E+03  0.16599629241E+03 0.  0.
       24    2    3    3    0    0 -0.23545470107E+02  0.53248311396E+01 -0.63260811878E+01  0.83390172851E+02  0.79568578194E+02 0.  0.
       -6    2    1    2    0  503 -0.39840932677E+02 -0.53407099136E+02 -0.60945785752E+02  0.19529160640E+03  0.17316120979E+03 0.  0.
      -24    2    5    5    0    0 -0.75218466493E+02 -0.24091608608E+02  0.73710821107E+01  0.11282796400E+03  0.80234614117E+02 0.  0.
        5    1    3    3  501    0  0.63386402783E+02  0.48082267996E+02  0.71231896126E+02  0.10689159733E+03  0.47000000000E+01 0. -1.
      -11    1    4    4    0    0 -0.46238767065E+02 -0.16070336216E+02  0.70448025942E+01  0.49456127319E+02  0.00000000000E+00 0.  1.
       12    1    4    4    0    0  0.22693296959E+02  0.21395167356E+02 -0.13370883782E+02  0.33934045532E+02  0.00000000000E+00 0. -1.
       -5    1    5    5    0  503  0.35377533816E+02 -0.29315490528E+02 -0.68316867862E+02  0.82463642403E+02  0.47000000000E+01 0.  1.
        3    1    6    6  502    0 -0.31078476742E+02 -0.11303425344E+02  0.43307473732E+02  0.54490149772E+02  0.00000000000E+00 0. -1.
       -4    1    6    6    0  502 -0.44139989751E+02 -0.12788183264E+02 -0.35936391621E+02  0.58337814230E+02  0.00000000000E+00 0.  1.
</event>
<event>
12   0  0.1523332E-01  0.1980649E+03  0.7957747E-01  0.1157572E+00
       21   -1    0    0  501  503  0.00000000000E+00  0.00000000000E+00  0.21228453638E+03  0.21228453638E+03  0.00000000000E+00 0.  1.
       21   -1    0    0  503  504  0.00000000000E+00  0.00000000000E+00 -0.19097543698E+03  0.19097543698E+03  0.00000000000E+00 0.  1.
        6    2    1    2  501    0  0.53515658375E+02  0.80384270213E+02 -0.27706760011E+02  0.19922012928E+03  0.17203324903E+03 0.  0.
       24    2    3    3    0    0 -0.45277544480E+00  0.10687669339E+03 -0.35605478812E+02  0.13840138141E+03  0.80401241649E+02 0.  0.
       -6    2    1    2    0  504 -0.53515658375E+02 -0.80384270213E+02  0.49015859412E+02  0.20403984408E+03  0.17292815534E+03 0.  0.
      -24    2    5    5    0    0 -0.17345482361E+02 -0.88756014899E+02  0.88032607733E+02  0.14997724710E+03  0.81024309224E+02 0.  0.
        5    1    3    3  501    0  0.53968433820E+02 -0.26492423172E+02  0.78987188014E+01  0.60818747876E+02  0.47000000000E+01 0. -1.
      -11    1    4    4    0    0 -0.18278281833E+01  0.15598048505E+02  0.24500462986E+02  0.29101765574E+02  0.00000000000E+00 0.  1.
       12    1    4    4    0    0  0.13750527385E+01  0.91278644881E+02 -0.60105941798E+02  0.10929961583E+03  0.00000000000E+00 0. -1.
       -5    1    5    5    0  504 -0.36170176015E+02  0.83717446853E+01 -0.39016748321E+02  0.54062596974E+02  0.47000000000E+01 0.  1.
        1    1    6    6  502    0  0.25705555432E+02 -0.44669702204E+02  0.13511103210E+02  0.53279525007E+02  0.00000000000E+00 0. -1.
       -2    1    6    6    0  502 -0.43051037793E+02 -0.44086312695E+02  0.74521504523E+02  0.96697722095E+02  0.00000000000E+00 0.  1.
</event>
<event>
12   0  0.1523332E-01  0.2181219E+03  0.7957747E-01  0.1142013E+00
       21   -1    0    0  501  503  0.00000000000E+00  0.00000000000E+00  0.13139139444E+03  0.13139139444E+03  0.00000000000E+00 0. -1.
       21   -1    0    0  503  504  0.00000000000E+00  0.00000000000E+00 -0.94084241377E+03  0.94084241377E+03  0.00000000000E+00 0.  1.
        6    2    1    2  501    0 -0.99756330249E+02 -0.89163198678E+02  0.15798318427E+02  0.21869324425E+03  0.17226649933E+03 0.  0.
       24    2    3    3    0    0 -0.52593943256E+02 -0.11916517666E+03 -0.16529643142E+02  0.15395070392E+03  0.80381141678E+02 0.  0.
       -6    2    1    2    0  504  0.99756330249E+02  0.89163198678E+02 -0.82524933775E+03  0.85354056396E+03  0.17202797286E+03 0.  0.
      -24    2    5    5    0    0 -0.16681061981E+02  0.32087193960E+02 -0.31200322555E+03  0.32414562792E+03  0.80103242734E+02 0.  0.
        5    1    3    3  501    0 -0.47162386993E+02  0.30001977984E+02  0.32327961568E+02  0.64742540335E+02  0.47000000000E+01 0. -1.
      -11    1    4    4    0    0  0.19110049456E+02 -0.28548932209E+02 -0.17144464239E+02  0.38394897767E+02  0.00000000000E+00 0.  1.
       12    1    4    4    0    0 -0.71703992712E+02 -0.90616244453E+02  0.61482109726E+00  0.11555580615E+03  0.00000000000E+00 0. -1.
       -5    1    5    5    0  504  0.11643739223E+03  0.57076004718E+02 -0.51324611220E+03  0.52939493604E+03  0.47000000000E+01 0.  1.
        1    1    6    6  502    0  0.19907341481E+02  0.15045406359E+02 -0.28910945686E+02  0.38190434376E+02  0.00000000000E+00 0. -1.
       -2    1    6    6    0  502 -0.36588403462E+02  0.17041787602E+02 -0.28309227987E+03  0.28595519354E+03  0.00000000000E+00 0.  1.
</event>
<event>
12   0  0.1523332E-01  0.2089718E+03  0.7957747E-01  0.1148873E+00
       21   -1    0    0  501  503  0.00000000000E+00  0.00000000000E+00  0.10595071925E+03  0.10595071925E+03  0.00000000000E+00 0. -1.
       21   -1    0    0  503  504  0.00000000000E+00  0.00000000000E+00 -0.64396509619E+03  0.64396509619E+03  0.00000000000E+00 0. -1.
        6    2    1    2  501    0  0.65531226645E+02  0.95719461196E+02 -0.43965467357E+02  0.21354661388E+03  0.17381782722E+03 0.  0.
       24    2    3    3    0    0  0.51299473734E+02  0.18345201397E+02 -0.78492672034E+02  0.12750280682E+03  0.84425610826E+02 0.  0.
       -6    2    1    2    0  504 -0.65531226645E+02 -0.95719461196E+02 -0.49404890959E+03  0.53636920157E+03  0.17364054368E+03 0.  0.
      -24    2    5    5    0    0 -0.10844829978E+03 -0.70613628850E+02 -0.30686757082E+03  0.34263969538E+03  0.80541520528E+02 0.  0.
        5    1    3    3  501    0  0.14231752911E+02  0.77374259799E+02  0.34527204677E+02  0.86043807059E+02  0.47000000000E+01 0. -1.
        2    1    4    4  502    0  0.33943633711E+02 -0.72728669070E+01  0.80150901504E+01  0.35627328452E+02  0.00000000000E+00 0. -1.
       -1    1    4    4    0  502  0.17355840024E+02  0.25618068304E+02 -0.86507762184E+02  0.91875478365E+02  0.00000000000E+00 0.  1.
       -5    1    5    5    0  504  0.42917073130E+02 -0.25105832346E+02 -0.18718133877E+03  0.19372950619E+03  0.47000000000E+01 0.  1.
       13    1    6    6    0    0 -0.10014107399E+03 -0.57921297338E+02 -0.30634609716E+03  0.32746151321E+03  0.00000000000E+00 0. -1.
      -14    1    6    6    0    0 -0.83072257850E+01 -0.12692331512E+02 -0.52147365746E+00  0.15178182178E+02  0.00000000000E+00 0.  1.
</event>
<event>
12   0  0.1523332E-01  0.1975827E+03  0.7957747E-01  0.1157971E+00
       21   -1    0    0  504  503  0.00000000000E+00  0.00000000000E+00  0.20470816890E+03  0.20470816890E+03  0.00000000000E+00 0.  1.
       21   -1    0    0  501  504  0.00000000000E+00  0.00000000000E+00 -0.19063377676E+03  0.19063377676E+03  0.00000000000E+00 0.  1.
        6    2    1    2  501    0 -0.73458894095E+02  0.55943257927E+02 -0.81166094475E+01  0.19774937428E+03  0.17467993145E+03 0.  0.
       24    2    3    3    0    0 -0.13570238518E+02  0.63008047931E+02  0.49107203333E+02  0.11448343242E+03  0.80875048084E+02 0.  0.
       -6    2    1    2    0  503  0.73458894095E+02 -0.55943257927E+02  0.22191001587E+02  0.19759257137E+03  0.17327586814E+03 0.  0.
      -24    2    5    5    0    0  0.84864286419E+02  0.11700259337E+02  0.43047610556E+02  0.12573982932E+03  0.81354561801E+02 0.  0.
        5    1    3    3  501    0 -0.59888655577E+02 -0.70647900037E+01 -0.57223812781E+02  0.83265941860E+02  0.47000000000E+01 0. -1.
      -11    1    4    4    0    0 -0.14932835869E+02  0.66294095986E+02  0.27717377658E+01  0.68011611362E+02  0.00000000000E+00 0.  1.
       12    1    4    4    0    0  0.13625973512E+01 -0.32860480556E+01  0.46335465567E+02  0.46471821061E+02  0.00000000000E+00 0. -1.
       -5    1    5    5    0  503 -0.11405392324E+02 -0.67643517265E+02 -0.20856608969E+02  0.71852742047E+02  0.47000000000E+01 0.  1.
        3    1    6    6  502    0  0.71838895875E+00  0.30723667897E+02  0.38133892059E+01  0.30967754019E+02  0.00000000000E+00 0. -1.
       -4    1    6    6    0  502  0.84145897460E+02 -0.19023408559E+02  0.39234221350E+02  0.94772075305E+02  0.00000000000E+00 0.  1.
</event>
<event>
12   0  0.1523332E-01  0.1859376E+03  0.7957747E-01  0.1167996E+00
       21   -1    0    0  504  503  0.00000000000E+00  0.00000000000E+00  0.12854924635E+03  0.12854924635E+03  0.00000000000E+00 0.  1.
       21   -1    0    0  501  504  0.00000000000E+00  0.00000000000E+00 -0.32961522319E+03  0.32961522319E+03  0.00000000000E+00 0.  1.
        6    2    1    2  501    0  0.60354584546E+02  0.13211611937E+02 -0.19987040985E+03  0.27298531179E+03  0.17537268075E+03 0.  0.
       24    2    3    3    0    0  0.27014062056E+02  0.60917555718E+02 -0.18597671045E+03  0.21296387899E+03  0.79533444413E+02 0.  0.
       -6    2    1    2    0  503 -0.60354584546E+02 -0.13211611937E+02 -0.11955669929E+01  0.18517915776E+03  0.17456422464E+03 0.  0.
      -24    2    5    5    0    0 -0.18496757384E+02  0.51934502908E+02  0.28927090274E+02  0.10195921751E+03  0.80743933879E+02 0.  0.
        5    1    3    3  501    0  0.33340522490E+02 -0.47705943781E+02 -0.13893699393E+02  0.60021432795E+02  0.47000000000E+01 0. -1.
        4    1    4    4  502    0  0.49744571933E+02  0.14316797266E+02 -0.87227607942E+02  0.10143051172E+03  0.00000000000E+00 0. -1.
       -3    1    4    4    0  502 -0.22730509877E+02  0.46600758452E+02 -0.98749102512E+02  0.11153336727E+03  0.00000000000E+00 0.  1.
       -5    1    5    5    0  503 -0.41857827161E+02 -0.65146114845E+02 -0.30122657267E+02  0.83219940248E+02  0.47000000000E+01 0.  1.
       13    1    6    6    0    0  0.24761800755E+02  0.41638825034E+02 -0.83325486235E+00  0.48452377037E+02  0.00000000000E+00 0. -1.
      -14    1    6    6    0    0 -0.43258558139E+02  0.10295677874E+02  0.29760345137E+02  0.53506840477E+02  0.00000000000E+00 0.  1.
</event>
<event>
12   0  0.1523332E-01  0.1879801E+03  0.7957747E-01  0.1166180E+00
       21   -1    0    0  501  503  0.00000000000E+00  0.00000000000E+00  0.25501381794E+03  0.25501381794E+03  0.00000000000E+00 0.  1.
       21   -1    0    0  503  504  0.00000000000E+00  0.00000000000E+00 -0.13837184858E+03  0.13837184858E+03  0.00000000000E+00 0. -1.
        6    2    1    2  501    0 -0.86518214080E+01 -0.69897268940E+02  0.69338042006E+02  0.19954501682E+03  0.17334926435E+03 0.  0.
       24    2    3    3    0    0  0.20741930355E+02  0.50192156501E+01 -0.13354366433E+02  0.84060832976E+02  0.80202645450E+02 0.  0.
       -6    2    1    2    0  504  0.86518214080E+01  0.69897268940E+02  0.47303927360E+02  0.19384064970E+03  0.17428727352E+03 0.  0.
      -24    2    5    5    0    0 -0.26790568357E+02 -0.86570570876E+01  0.61346926151E+02  0.10639786300E+03  0.82245855294E+02 0.  0.
        5    1    3    3  501    0 -0.29393751763E+02 -0.74916484590E+02  0.82692408438E+02  0.11548418385E+03  0.47000000000E+01 0. -1.
        2    1    4    4  502    0  0.35896296675E+02 -0.28687084395E+02 -0.93014867124E+01  0.46882945525E+02  0.00000000000E+00 0. -1.
       -1    1    4    4    0  502 -0.15154366320E+02  0.33706300045E+02 -0.40528797204E+01  0.37177887451E+02  0.00000000000E+00 0.  1.
       -5    1    5    5    0  504  0.35442389765E+02  0.78554326027E+02 -0.14042998790E+02  0.87442786694E+02  0.47000000000E+01 0.  1.
       13    1    6    6    0    0  0.20438910781E+02  0.22234414912E+02  0.17273040552E+02  0.34791898630E+02  0.00000000000E+00 0. -1.
      -14    1    6    6    0    0 -0.47229479138E+02 -0.30891471999E+02  0.44073885599E+02  0.71605964373E+02  0.00000000000E+00 0.  1.
</event>
<event>
12   0  0.1523332E-01  0.1887643E+03  0.7957747E-01  0.1165489E+00
       21   -1    0    0  504  503  0.00000000000E+00  0.00000000000E+00  0.70457236175E+03  0.70457236175E+03  0.00000000000E+00 0. -1.
       21   -1    0    0  501  504  0.00000000000E+00  0.00000000000E+00 -0.94784330253E+02  0.94784330253E+02  0.00000000000E+00 0. -1.
        6    2    1    2  501    0  0.28632174968E+02  0.65417006293E+02  0.57852986066E+03  0.60802178835E+03  0.17290028710E+03 0.  0.
       24    2    3    3    0    0  0.38210264006E+01 -0.23698652517E+02  0.37118418069E+03  0.38092816286E+03  0.82172640750E+02 0.  0.
       -6    2    1    2    0  503 -0.28632174968E+02 -0.65417006293E+02  0.31258170839E+02  0.19133490365E+03  0.17473633267E+03 0.  0.
      -24    2    5    5    0    0 -0.62028319479E+02 -0.17031229585E+02  0.67043992558E+02  0.12234794190E+03  0.79602429300E+02 0.  0.
        5    1    3    3  501    0  0.24811148567E+02  0.89115658810E+02  0.20734567996E+03  0.22709362549E+03  0.47000000000E+01 0. -1.
      -13    1    4    4    0    0 -0.35762950490E+02 -0.27871573776E+02  0.17779913027E+03  0.18348935658E+03  0.00000000000E+00 0.  1.
       14    1    4    4    0    0  0.39583976891E+02  0.41729212598E+01  0.19338505042E+03  0.19743880628E+03  0.00000000000E+00 0. -1.
       -5    1    5    5    0  503  0.33396144511E+02 -0.48385776708E+02 -0.35785821719E+02  0.68986961754E+02  0.47000000000E+01 0.  1.
        3    1    6    6  502    0  0.41378488348E+01  0.21471448420E+02  0.21165746338E+01  0.21968722730E+02  0.00000000000E+00 0. -1.
       -4    1    6    6    0  502 -0.66166168314E+02 -0.38502678005E+02  0.64927417925E+02  0.10037921917E+03  0.00000000000E+00 0.  1.
</event>
<event>
12   0  0.1523332E-01  0.1828379E+03  0.7957747E-01  0.1170801E+00
       21   -1    0    0  501  503  0.00000000000E+00  0.00000000000E+00  0.74197010979E+03  0.74197010979E+03  0.00000000000E+00 0.  1.
       21   -1    0    0  503  504  0.00000000000E+00  0.00000000000E+00 -0.51662208981E+02  0.51662208981E+02  0.00000000000E+00 0.  1.
        6    2    1    2  501    0  0.24915636260E+02  0.51461967177E+02  0.48735077501E+03  0.52046330516E+03  0.17349971504E+03 0.  0.
       24    2    3    3    0    0  0.77012620665E+02  0.63308136161E+02  0.33098848610E+03  0.35515848703E+03  0.81518765527E+02 0.  0.
       -6    2    1    2    0  504 -0.24915636260E+02 -0.51461967177E+02  0.20295712580E+03  0.27316901361E+03  0.17366805143E+03 0.  0.
      -24    2    5    5    0    0 -0.16635374206E+02 -0.73143170860E+02  0.21844531496E+03  0.24487393742E+03  0.81352507534E+02 0.  0.
        5    1    3    3  501    0 -0.52096984405E+02 -0.11846168985E+02  0.15636228891E+03  0.16530481813E+03  0.47000000000E+01 0. -1.
      -13    1    4    4    0    0  0.86656439651E+02  0.68888235600E+02  0.25008247296E+03  0.27348888610E+03  0.00000000000E+00 0.  1.
       14    1    4    4    0    0 -0.96438189861E+01 -0.55800994389E+01  0.80906013133E+02  0.81669600926E+02  0.00000000000E+00 0. -1.
       -5    1    5    5    0  504 -0.82802620540E+01  0.21681203684E+02 -0.15488189163E+02  0.28295076187E+02  0.47000000000E+01 0.  1.
        1    1    6    6  502    0  0.21421025731E+02  0.55150910987E+01  0.59736209548E+02  0.63700010238E+02  0.00000000000E+00 0. -1.
       -2    1    6    6    0  502 -0.38056399937E+02 -0.78658261959E+02  0.15870910541E+03  0.18117392718E+03  0.00000000000E+00 0.  1.
</event>
<event>
12   0  0.1523332E-01  0.2155845E+03  0.7957747E-01  0.1143878E+00
        1   -1    0    0  502    0  0.00000000000E+00  0.00000000000E+00  0.14541864705E+03  0.14541864705E+03  0.00000000000E+00 0.  1.
       -1   -1    0    0    0  501  0.00000000000E+00  0.00000000000E+00 -0.32357945686E+03  0.32357945686E+03  0.00000000000E+00 0. -1.
        6    2    1    2  502    0 -0.26991939051E+02  0.12406991530E+03 -0.63259717708E+02  0.22505444266E+03  0.17471634617E+03 0.  0.
       24    2    3    3    0    0  0.12537924718E+02  0.13410928382E+03 -0.93125660201E+01  0.15726222905E+03  0.80636128624E+02 0.  0.
       -6    2    1    2    0  501  0.26991939051E+02 -0.12406991530E+03 -0.11490109210E+03  0.24394366125E+03  0.17373641023E+03 0.  0.
      -24    2    5    5    0    0  0.50190883114E+02 -0.13391182085E+03 -0.13426788578E+03  0.21181553015E+03  0.79915287340E+02 0.  0.
        5    1    3    3  502    0 -0.39529863769E+02 -0.10039368520E+02 -0.53947151688E+02  0.67792213602E+02  0.47000000000E+01 0. -1.
        2    1    4    4  503    0 -0.34316578091E+02  0.53275090794E+02 -0.74968102275E+01  0.63812733796E+02  0.00000000000E+00 0. -1.
       -1    1    4    4    0  503  0.46854502808E+02  0.80834193021E+02 -0.18157557926E+01  0.93449495258E+02  0.00000000000E+00 0.  1.
       -5    1    5    5    0  501 -0.23198944063E+02  0.98419055514E+01  0.19366793675E+02  0.32128131097E+02  0.47000000000E+01 0.  1.
       13    1    6    6    0    0  0.46129813588E+02 -0.21847193512E+02 -0.33497227841E+02  0.61051812741E+02  0.00000000000E+00 0. -1.
      -14    1    6    6    0    0  0.40610695268E+01 -0.11206462733E+03 -0.10077065794E+03  0.15076371741E+03  0.00000000000E+00 0.  1.
</event>
<event>
12   0  0.1523332E-01  0.1763916E+03  0.7957747E-01  0.1176835E+00
       21   -1    0    0  501  503  0.00000000000E+00  0.00000000000E+00  0.27388313669E+03  0.27388313669E+03  0.00000000000E+00 0. -1.
       21   -1    0    0  503  504  0.00000000000E+00  0.00000000000E+00 -0.10853197789E+03  0.10853197789E+03  0.00000000000E+00 0.  1.
        6    2    1    2  501    0  0.12411094426E+02  0.36510631733E+02  0.10610071144E+03  0.19633820700E+03  0.16063707251E+03 0.  0.
       24    2    3    3    0    0  0.36757829934E+02  0.18138533839E+02  0.47528100537E+01  0.90395842358E+02  0.80428071224E+02 0.  0.
       -6    2    1    2    0  504 -0.12411094426E+02 -0.36510631733E+02  0.59250447364E+02  0.18607690758E+03  0.17212477604E+03 0.  0.
      -24    2    5    5    0    0 -0.34850021692E+02  0.17448272271E+02  0.83941330876E+02  0.12246245555E+03  0.80199375139E+02 0.  0.
        5    1    3    3  501    0 -0.24346735508E+02  0.18372097894E+02  0.10134790138E+03  0.10594236464E+03  0.47000000000E+01 0. -1.
      -13    1    4    4    0    0  0.41778808594E+02  0.45233724857E+02  0.98893672326E+01  0.62364719964E+02  0.00000000000E+00 0.  1.
       14    1    4    4    0    0 -0.50209786597E+01 -0.27095191018E+02 -0.51365571789E+01  0.28031122394E+02  0.00000000000E+00 0. -1.
       -5    1    5    5    0  504  0.22438927267E+02 -0.53958904003E+02 -0.24690883512E+02  0.63614452027E+02  0.47000000000E+01 0.  1.
        3    1    6    6  502    0 -0.17588684948E+02 -0.19550323713E+02  0.76589713940E+02  0.80978770533E+02  0.00000000000E+00 0. -1.
       -4    1    6    6    0  502 -0.17261336744E+02  0.36998595984E+02  0.73516169353E+01  0.41483685016E+02  0.00000000000E+00 0.  1.
</event>
<event>
12   0  0.1523332E-01  0.3443340E+03  0.7957747E-01  0.1073704E+00
       -2   -1    0    0    0  501  0.00000000000E+00  0.00000000000E+00  0.16612318654E+03  0.16612318654E+03  0.00000000000E+00 0. -1.
        2   -1    0    0  502    0  0.00000000000E+00  0.00000000000E+00 -0.72907728103E+03  0.72907728103E+03  0.00000000000E+00 0.  1.
        6    2    1    2  502    0  0.27894409175E+03  0.10404779222E+03 -0.21653728777E+03  0.40677828222E+03  0.17304457374E+03 0.  0.
       24    2    3    3    0    0  0.11636693673E+03 -0.13790492767E+02 -0.78256865207E+02  0.16293251537E+03  0.81801136660E+02 0.  0.
       -6    2    1    2    0  501 -0.27894409175E+03 -0.10404779222E+03 -0.34641680671E+03  0.48842218535E+03  0.17296207036E+03 0.  0.
      -24    2    5    5    0    0 -0.25601453483E+03 -0.11490831318E+03 -0.23646170583E+03  0.37548003332E+03  0.79522038555E+02 0.  0.
        5    1    3    3  502    0  0.16257715503E+03  0.11783828499E+03 -0.13828042257E+03  0.24384576685E+03  0.47000000000E+01 0. -1.
      -11    1    4    4    0    0 -0.84562131871E+01  0.12592964272E+02 -0.10755544077E+02  0.18594946061E+02  0.00000000000E+00 0.  1.
       12    1    4    4    0    0  0.12482314991E+03 -0.26383457039E+02 -0.67501321129E+02  0.14433756931E+03  0.00000000000E+00 0. -1.
       -5    1    5    5    0  501 -0.22929556926E+02  0.10860520963E+02 -0.10995510088E+03  0.11294215204E+03  0.47000000000E+01 0.  1.
        1    1    6    6  503    0 -0.10655486900E+03 -0.98293091699E+01 -0.10874239504E+03  0.15256298341E+03  0.00000000000E+00 0. -1.
       -2    1    6    6    0  503 -0.14945966583E+03 -0.10507900401E+03 -0.12771931078E+03  0.22291704991E+03  0.00000000000E+00 0.  1.
</event>
<event>
12   0  0.1523332E-01  0.1804082E+03  0.7957747E-01  0.1173042E+00
        1   -1    0    0  502    0  0.00000000000E+00  0.00000000000E+00  0.34502483812E+02  0.34502483812E+02  0.00000000000E+00 0.  1.
       -1   -1    0    0    0  501  0.00000000000E+00  0.00000000000E+00 -0.97510738589E+03  0.97510738589E+03  0.00000000000E+00 0. -1.
        6    2    1    2  502    0  0.50399408522E+02  0.14169607021E+02 -0.37848892291E+03  0.41916977681E+03  0.17236170945E+03 0.  0.
       24    2    3    3    0    0  0.40880316703E+00  0.25849624047E+02 -0.34991056693E+03  0.36022661901E+03  0.81593149288E+02 0.  0.
       -6    2    1    2    0  501 -0.50399408522E+02 -0.14169607021E+02 -0.56211597916E+03  0.59044009288E+03  0.17292845663E+03 0.  0.
      -24    2    5    5    0    0 -0.18468703996E+02 -0.33296792266E+02 -0.53823154476E+03  0.54596565850E+03  0.83279860027E+02 0.  0.
        5    1    3    3  502    0  0.49990605355E+02 -0.11680017026E+02 -0.28578355985E+02  0.58943157807E+02  0.47000000000E+01 0. -1.
      -11    1    4    4    0    0  0.22550471454E+02 -0.14392564211E+02 -0.48967628276E+02  0.55798730150E+02  0.00000000000E+00 0.  1.
       12    1    4    4    0    0 -0.22141668287E+02  0.40242188257E+02 -0.30094293865E+03  0.30442788886E+03  0.00000000000E+00 0. -1.
       -5    1    5    5    0  501 -0.31930704526E+02  0.19127185245E+02 -0.23884434402E+02  0.44474434382E+02  0.47000000000E+01 0.  1.
        3    1    6    6  503    0 -0.48268169060E+02 -0.14924299691E+02 -0.40779933512E+03  0.41091708238E+03  0.00000000000E+00 0. -1.
       -4    1    6    6    0  503  0.29799465064E+02 -0.18372492575E+02 -0.13043220964E+03  0.13504857612E+03  0.00000000000E+00 0.  1.
</event>
<event>
12   0  0.1523332E-01  0.2554060E+03  0.7957747E-01  0.1117441E+00
       21   -1    0    0  504  503  0.00000000000E+00  0.00000000000E+00  0.10411607397E+03  0.10411607397E+03  0.00000000000E+00 0. -1.
       21   -1    0    0  501  504  0.00000000000E+00  0.00000000000E+00 -0.74433323213E+03  0.74433323213E+03  0.00000000000E+00 0.  1.
        6    2    1    2  501    0  0.59890349606E+02  0.17867557961E+03 -0.15045669477E+03  0.29609297328E+03  0.17181971685E+03 0.  0.
       24    2    3    3    0    0  0.11361608424E+02  0.28447886549E+02 -0.95203930252E+02  0.12876587903E+03  0.81107921145E+02 0.  0.
       -6    2    1    2    0  503 -0.59890349606E+02 -0.17867557961E+03 -0.48976046340E+03  0.55235633282E+03  0.17239602715E+03 0.  0.
      -24    2    5    5    0    0 -0.91908461200E+02 -0.18635449654E+03 -0.42571914684E+03  0.48019328507E+03  0.78572485096E+02 0.  0.
        5    1    3    3  501    0  0.48528741182E+02  0.15022769306E+03 -0.55252764520E+02  0.16732709425E+03  0.47000000000E+01 0. -1.
        2    1    4    4  502    0 -0.23452855781E+02  0.10943665842E+01  0.31956757689E+00  0.23480549523E+02  0.00000000000E+00 0. -1.
       -1    1    4    4    0  502  0.34814464205E+02  0.27353519965E+02 -0.95523497829E+02  0.10528532951E+03  0.00000000000E+00 0.  1.
       -5    1    5    5    0  503  0.32018111594E+02  0.76789169328E+01 -0.64041316554E+02  0.72163047755E+02  0.47000000000E+01 0.  1.
       13    1    6    6    0    0 -0.51205458064E+02 -0.10807523809E+03 -0.15700114318E+03  0.19736163503E+03  0.00000000000E+00 0. -1.
      -14    1    6    6    0    0 -0.40703003136E+02 -0.78279258453E+02 -0.26871800367E+03  0.28283165004E+03  0.00000000000E+00 0.  1.
</event>
<event>
12   0  0.1523332E-01  0.1892171E+03  0.7957747E-01  0.1165092E+00
       21   -1    0    0  501  503  0.00000000000E+00  0.00000000000E+00  0.10028577296E+04  0.10028577296E+04  0.00000000000E+00 0.  1.
       21   -1    0    0  503  504  0.00000000000E+00  0.00000000000E+00 -0.39975144934E+02  0.39975144934E+02  0.00000000000E+00 0.  1.
        6    2    1    2  501    0  0.22990785564E+02 -0.72898800059E+02  0.65304374086E+03  0.67978574753E+03  0.17262596503E+03 0.  0.
       24    2    3    3    0    0  0.58953646425E+02 -0.12298513255E+02  0.24507036573E+03  0.26574458178E+03  0.83270119080E+02 0.  0.
       -6    2    1    2    0  504 -0.22990785564E+02  0.72898800059E+02  0.30983884377E+03  0.36304712697E+03  0.17309042729E+03 0.  0.
      -24    2    5    5    0    0 -0.69535432491E+02  0.84641056383E+02  0.25969358860E+03  0.29347039697E+03  0.81760804420E+02 0.  0.
        5    1    3    3  501    0 -0.35962860861E+02 -0.60600286804E+02  0.40797337513E+03  0.41404116576E+03  0.47000000000E+01 0. -1.
        4    1    4    4  502    0  0.73975908279E+02  0.95234088503E+01  0.15775636949E+03  0.17449986372E+03  0.00000000000E+00 0. -1.
       -3    1    4    4    0  502 -0.15022261854E+02 -0.21821922105E+02  0.87313996231E+02  0.91244718058E+02  0.00000000000E+00 0.  1.
       -5    1    5    5    0  504  0.46544646927E+02 -0.11742256325E+02  0.50145255174E+02  0.69576730001E+02  0.47000000000E+01 0.  1.
       11    1    6    6    0    0 -0.37072356060E+02  0.38916752033E+02  0.21541752284E+03  0.22202158075E+03  0.00000000000E+00 0. -1.
      -12    1    6    6    0    0 -0.32463076431E+02  0.45724304350E+02  0.44276065761E+02  0.71448816218E+02  0.00000000000E+00 0.  1.
</event>
<event>
12   0  0.1523332E-01  0.2009760E+03  0.7957747E-01  0.1155191E+00
       21   -1    0    0  501  503  0.00000000000E+00  0.00000000000E+00  0.39952851535E+03  0.39952851535E+03  0.00000000000E+00 0.  1.
       21   -1    0    0  503  504  0.00000000000E+00  0.00000000000E+00 -0.10129811753E+03  0.10129811753E+03  0.00000000000E+00 0. -1.
        6    2    1    2  501    0  0.18303433415E+02  0.99982998812E+02  0.12732074594E+03  0.23700571860E+03  0.17213228220E+03 0.  0.
       24    2    3    3    0    0  0.36347241605E+01 -0.16231940197E+02  0.56903458748E+02  0.10025131313E+03  0.80843274700E+02 0.  0.
       -6    2    1    2    0  504 -0.18303433415E+02 -0.99982998812E+02  0.17090965188E+03  0.26382091428E+03  0.17337747830E+03 0.  0.
      -24    2    5    5    0    0 -0.17591949111E+02 -0.13824371835E+03  0.12300832575E+03  0.20233094832E+03  0.79912215007E+02 0.  0.
        5    1    3    3  501    0  0.14668709255E+02  0.11621493901E+03  0.70417287189E+02  0.13675440547E+03  0.47000000000E+01 0. -1.
      -11    1    4    4    0    0  0.35462599760E+02 -0.23563222289E+02  0.11108672126E+02  0.44002545640E+02  0.00000000000E+00 0.  1.
       12    1    4    4    0    0 -0.31827875599E+02  0.73312820919E+01  0.45794786622E+02  0.56248767489E+02  0.00000000000E+00 0. -1.
       -5    1    5    5    0  504 -0.71148430447E+00  0.38260719538E+02  0.47901326130E+02  0.61489965966E+02  0.47000000000E+01 0.  1.
        1    1    6    6  502    0 -0.47960436833E+01 -0.31577495026E+02 -0.79806528188E+01  0.32921589369E+02  0.00000000000E+00 0. -1.
       -2    1    6    6    0  502 -0.12795905427E+02 -0.10666622332E+03  0.13098897857E+03  0.16940935895E+03  0.00000000000E+00 0.  1.
</event>
<event>
12   0  0.1523332E-01  0.1865684E+03  0.7957747E-01  0.1167432E+00
       21   -1    0    0  501  503  0.00000000000E+00  0.00000000000E+00  0.34731743741E+03  0.34731743741E+03  0.00000000000E+00 0. -1.
       21   -1    0    0  503  504  0.00000000000E+00  0.00000000000E+00 -0.21374905466E+03  0.21374905466E+03  0.00000000000E+00 0.  1.
        6    2    1    2  501    0 -0.67967790445E+02 -0.15367992152E+02  0.27175383695E+03  0.32889634382E+03  0.17165914296E+03 0.  0.
       24    2    3    3    0    0 -0.10286470416E+03  0.10796623284E+02  0.24716098718E+03  0.27860439668E+03  0.76381554238E+02 0.  0.
       -6    2    1    2    0  504  0.67967790445E+02  0.15367992152E+02 -0.13818545420E+03  0.23217014824E+03  0.17306635220E+03 0.  0.
      -24    2    5    5    0    0  0.18128461786E+02  0.72190399859E+02 -0.69075074230E+02  0.12964659330E+03  0.80602594977E+02 0.  0.
        5    1    3    3  501    0  0.34896913715E+02 -0.26164615437E+02  0.24592849773E+02  0.50291947146E+02  0.47000000000E+01 0. -1.
        2    1    4    4  502    0 -0.48683363222E+02 -0.19593631929E+02  0.17830094113E+03  0.18586340649E+03  0.00000000000E+00 0. -1.
       -1    1    4    4    0  502 -0.54181340938E+02  0.30390255214E+02  0.68860046055E+02  0.92740990185E+02  0.00000000000E+00 0.  1.
       -5    1    5    5    0  504  0.49839328659E+02 -0.56822407706E+02 -0.69110379965E+02  0.10252355494E+03  0.47000000000E+01 0.  1.
       11    1    6    6    0    0  0.34949331850E+02  0.31400187297E+01 -0.81197961082E+01  0.36017309772E+02  0.00000000000E+00 0. -1.
      -12    1    6    6    0    0 -0.16820870064E+02  0.69050381129E+02 -0.60955278122E+02  0.93629283532E+02  0.00000000000E+00 0.  1.
</event>
<event>
12   0  0.1523332E-01  0.1864387E+03  0.7957747E-01  0.1167548E+00
       21   -1    0    0  501  503  0.00000000000E+00  0.00000000000E+00  0.14796958049E+03  0.14796958049E+03  0.00000000000E+00 0. -1.
       21   -1    0    0  503  504  0.00000000000E+00  0.00000000000E+00 -0.30766024826E+03  0.30766024826E+03  0.00000000000E+00 0.  1.
        6    2    1    2  501    0  0.58263429321E+02  0.37737203949E+02  0.31181742736E+02  0.18902826251E+03  0.17303369380E+03 0.  0.
       24    2    3    3    0    0 -0.33162493977E+02  0.42915072447E+01  0.99251853134E+01  0.89272333802E+02  0.82175861649E+02 0.  0.
       -6    2    1    2    0  504 -0.58263429321E+02 -0.37737203949E+02 -0.19087241051E+03  0.26660156624E+03  0.17270030189E+03 0.  0.
      -24    2    5    5    0    0  0.99313435068E+01 -0.90487254005E+01 -0.24606655730E+02  0.84557760929E+02  0.79774785565E+02 0.  0.
        5    1    3    3  501    0  0.91425923298E+02  0.33445696704E+02  0.21256557422E+02  0.99755928708E+02  0.47000000000E+01 0. -1.
        2    1    4    4  502    0 -0.60166297241E+02  0.96620671148E+01  0.37297204388E+01  0.61051205387E+02  0.00000000000E+00 0. -1.
       -1    1    4    4    0  502  0.27003803264E+02 -0.53705598701E+01  0.61954648747E+01  0.28221128415E+02  0.00000000000E+00 0.  1.
       -5    1    5    5    0  504 -0.68194772828E+02 -0.28688478548E+02 -0.16626575478E+03  0.18204380532E+03  0.47000000000E+01 0.  1.
       11    1    6    6    0    0  0.31614340327E+01 -0.40366581749E+02  0.51671243781E+01  0.40818559034E+02  0.00000000000E+00 0. -1.
      -12    1    6    6    0    0  0.67699094741E+01  0.31317856348E+02 -0.29773780108E+02  0.43739201895E+02  0.00000000000E+00 0.  1.
</event>
<event>
12   0  0.1523332E-01  0.1799038E+03  0.7957747E-01  0.1173513E+00
       21   -1    0    0  504  503  0.00000000000E+00  0.00000000000E+00  0.78932925623E+02  0.78932925623E+02  0.00000000000E+00 0.  1.
       21   -1    0    0  501  504  0.00000000000E+00  0.00000000000E+00 -0.44476479112E+03  0.44476479112E+03  0.00000000000E+00 0.  1.
        6    2    1    2  501    0 -0.75129370614E+01  0.48819533017E+02 -0.25750800294E+03  0.31412695999E+03  0.17299012802E+03 0.  0.
       24    2    3    3    0    0 -0.57975318160E+01  0.85365753142E+02 -0.99861036059E+02  0.15222197247E+03  0.76670588849E+02 0.  0.
       -6    2    1    2    0  503  0.75129370614E+01 -0.48819533017E+02 -0.10832386257E+03  0.20957075675E+03  0.17247043763E+03 0.  0.
      -24    2    5    5    0    0 -0.25203992991E+02  0.23664868404E+02 -0.21327397963E+02  0.91609488470E+02  0.82110737511E+02 0.  0.
        5    1    3    3  501    0 -0.17154052454E+01 -0.36546220125E+02 -0.15764696688E+03  0.16190498753E+03  0.47000000000E+01 0. -1.
      -13    1    4    4    0    0  0.26936762536E+01  0.72592447084E+01  0.12747173283E+02  0.14914521521E+02  0.00000000000E+00 0.  1.
       14    1    4    4    0    0 -0.84912080695E+01  0.78106508434E+02 -0.11260820934E+03  0.13730745095E+03  0.00000000000E+00 0. -1.
       -5    1    5    5    0  503  0.32716930052E+02 -0.72484401421E+02 -0.86996464603E+02  0.11796126828E+03  0.47000000000E+01 0.  1.
        1    1    6    6  502    0  0.15168511390E+02 -0.22013922642E+02  0.82464582386E+00  0.26746524421E+02  0.00000000000E+00 0. -1.
       -2    1    6    6    0  502 -0.40372504381E+02  0.45678791046E+02 -0.22152043787E+02  0.64862964049E+02  0.00000000000E+00 0.  1.
</event>
<event>
12   0  0.1523332E-01  0.2998235E+03  0.7957747E-01  0.1093534E+00
       21   -1    0    0  501  503  0.00000000000E+00  0.00000000000E+00  0.11050755515E+04  0.11050755515E+04  0.00000000000E+00 0. -1.
       21   -1    0    0  503  504  0.00000000000E+00  0.00000000000E+00 -0.26751711498E+03  0.26751711498E+03  0.00000000000E+00 0.  1.
        6    2    1    2  501    0  0.22666699642E+03 -0.89811449996E+02  0.99135480478E+03  0.10356246702E+04  0.17404046895E+03 0.  0.
       24    2    3    3    0    0  0.62803341466E+02 -0.38777165396E+02  0.57944677049E+03  0.58936676910E+03  0.78400895599E+02 0.  0.
       -6    2    1    2    0  504 -0.22666699642E+03  0.89811449996E+02 -0.15379636823E+03  0.33696799627E+03  0.17449952382E+03 0.  0.
      -24    2    5    5    0    0 -0.19677400240E+03  0.12841417873E+03 -0.14328379523E+03  0.28680460377E+03  0.80724379502E+02 0.  0.
        5    1    3    3  501    0  0.16386365495E+03 -0.51034284600E+02  0.41190803429E+03  0.44625790114E+03  0.47000000000E+01 0. -1.
        2    1    4    4  502    0  0.47011665163E+02 -0.61477747247E+02  0.36284150842E+03  0.37100346400E+03  0.00000000000E+00 0. -1.
       -1    1    4    4    0  502  0.15791676303E+02  0.22700581850E+02  0.21660526208E+03  0.21836330510E+03  0.00000000000E+00 0.  1.
       -5    1    5    5    0  504 -0.29892994015E+02 -0.38602728730E+02 -0.10512573001E+02  0.50163392506E+02  0.47000000000E+01 0.  1.
       11    1    6    6    0    0 -0.38532099856E+02  0.68671092011E+02 -0.54607685050E+02  0.95825053425E+02  0.00000000000E+00 0. -1.
      -12    1    6    6    0    0 -0.15824190255E+03  0.59743086716E+02 -0.88676110180E+02  0.19097955034E+03  0.00000000000E+00 0.  1.
</event>
<event>
12   0  0.1523332E-01  0.1896202E+03  0.7957747E-01  0.1164740E+00
       21   -1    0    0  504  503  0.00000000000E+00  0.00000000000E+00  0.17587484520E+03  0.17587484520E+03  0.00000000000E+00 0. -1.
       21   -1    0    0  501  504  0.00000000000E+00  0.00000000000E+00 -0.20605504402E+03  0.20605504402E+03  0.00000000000E+00 0. -1.
        6    2    1    2  501    0  0.37023072497E+02  0.64791212774E+02 -0.34089279963E+02  0.19266001757E+03  0.17431923076E+03 0.  0.
       24    2    3    3    0    0 -0.16877232730E+02 -0.35563465549E+01  0.25323249543E+02  0.87167977907E+02  0.81605764622E+02 0.  0.
       -6    2    1    2    0  503 -0.37023072497E+02 -0.64791212774E+02  0.39090811465E+01  0.18926987165E+03  0.17389420418E+03 0.  0.
      -24    2    5    5    0    0 -0.73210173456E+01 -0.57587295227E+02  0.66288798897E+02  0.11964640078E+03  0.80939251878E+02 0.  0.
        5    1    3    3  501    0  0.53900305227E+02  0.68347559329E+02 -0.59412529506E+02  0.10549203966E+03  0.47000000000E+01 0. -1.
      -11    1    4    4    0    0 -0.34097833587E+02  0.70222310986E+01 -0.18125120532E+02  0.39249127115E+02  0.00000000000E+00 0.  1.
       12    1    4    4    0    0  0.17220600858E+02 -0.10578577654E+02  0.43448370075E+02  0.47918850792E+02  0.00000000000E+00 0. -1.
       -5    1    5    5    0  503 -0.29702055151E+02 -0.72039175468E+01 -0.62379717750E+02  0.69623470862E+02  0.47000000000E+01 0.  1.
        1    1    6    6  502    0 -0.42275089604E+02 -0.23689586294E+02  0.46264473309E+02  0.66998367072E+02  0.00000000000E+00 0. -1.
       -2    1    6    6    0  502  0.34954072258E+02 -0.33897708933E+02  0.20024325588E+02  0.52648033711E+02  0.00000000000E+00 0.  1.
</event>
<event>
12   0  0.1523332E-01  0.1871775E+03  0.7957747E-01  0.1166890E+00
       21   -1    0    0  504  503  0.00000000000E+00  0.00000000000E+00  0.47420807747E+03  0.47420807747E+03  0.00000000000E+00 0. -1.
       21   -1    0    0  501  504  0.00000000000E+00  0.00000000000E+00 -0.90192034264E+02  0.90192034264E+02  0.00000000000E+00 0.  1.
        6    2    1    2  501    0 -0.70799865293E+02 -0.79594035581E+01  0.31391011210E+03  0.36547910771E+03  0.17308797376E+03 0.  0.
       24    2    3    3    0    0 -0.11443856861E+03 -0.23582303353E+01  0.26604220596E+03  0.30029371051E+03  0.79348030757E+02 0.  0.
       -6    2    1    2    0  503  0.70799865293E+02  0.79594035581E+01  0.70105931103E+02  0.19892100403E+03  0.17198474129E+03 0.  0.
      -24    2    5    5    0    0  0.62972449767E+02  0.36553898913E+02  0.10636894320E+03  0.15184649240E+03  0.80257636525E+02 0.  0.
        5    1    3    3  501    0  0.43638703319E+02 -0.56011732228E+01  0.47867906144E+02  0.65185397194E+02  0.47000000000E+01 0. -1.
        2    1    4    4  502    0 -0.62673641881E+02  0.35259286537E+02  0.17320559495E+03  0.18754034445E+03  0.00000000000E+00 0. -1.
       -1    1    4    4    0  502 -0.51764926731E+02 -0.37617516872E+02  0.92836611012E+02  0.11275336607E+03  0.00000000000E+00 0.  1.
       -5    1    5    5    0  503  0.78274155264E+01 -0.28594495355E+02 -0.36263012100E+02  0.47074511628E+02  0.47000000000E+01 0.  1.
       13    1    6    6    0    0 -0.14999454538E+02  0.18986327132E+02  0.44944089716E+02  0.51043466328E+02  0.00000000000E+00 0. -1.
      -14    1    6    6    0    0  0.77971904305E+02  0.17567571781E+02  0.61424853488E+02  0.10080302607E+03  0.00000000000E+00 0.  1.
</event>
<event>
12   0  0.1523332E-01  0.2233598E+03  0.7957747E-01  0.1138249E+00
       21   -1    0    0  504  503  0.00000000000E+00  0.00000000000E+00  0.20296469337E+03  0.20296469337E+03  0.00000000000E+00 0.  1.
       21   -1    0    0  501  504  0.00000000000E+00  0.00000000000E+00 -0.26189255852E+03  0.26189255852E+03  0.00000000000E+00 0. -1.
        6    2    1    2  501    0  0.13474660427E+03 -0.24461731802E+02  0.36793603703E+02  0.22185070804E+03  0.17061343352E+03 0.  0.
       24    2    3    3    0    0  0.94592162296E+02  0.21587148081E+02  0.77062993542E+02  0.14852545791E+03  0.81898867777E+02 0.  0.
       -6    2    1    2    0  503 -0.13474660427E+03  0.24461731802E+02 -0.95721468855E+02  0.24300654385E+03  0.17644987127E+03 0.  0.
      -24    2    5    5    0    0 -0.13405806831E+03 -0.37359011349E+02 -0.54002162216E+02  0.16827456334E+03  0.77671318595E+02 0.  0.
        5    1    3    3  501    0  0.40154441973E+02 -0.46048879883E+02 -0.40269389839E+02  0.73325250130E+02  0.47000000000E+01 0. -1.
        2    1    4    4  502    0  0.29624105761E+02  0.90319836083E+01 -0.15587702582E+02  0.34671902772E+02  0.00000000000E+00 0. -1.
       -1    1    4    4    0  502  0.64968056534E+02  0.12555164472E+02  0.92650696124E+02  0.11385355514E+03  0.00000000000E+00 0.  1.
       -5    1    5    5    0  503 -0.68853595360E+00  0.61820743152E+02 -0.41719306639E+02  0.74731980517E+02  0.47000000000E+01 0.  1.
       13    1    6    6    0    0 -0.79715484244E+02  0.17561671545E+02 -0.34296031858E+02  0.88539192095E+02  0.00000000000E+00 0. -1.
      -14    1    6    6    0    0 -0.54342584071E+02 -0.54920682894E+02 -0.19706130358E+02  0.79735371240E+02  0.00000000000E+00 0.  1.
</event>
<event>
12   0  0.1523332E-01  0.1851531E+03  0.7957747E-01  0.1168700E+00
       21   -1    0    0  501  503  0.00000000000E+00  0.00000000000E+00  0.29171892390E+03  0.29171892390E+03  0.00000000000E+00 0.  1.
       21   -1    0    0  503  504  0.00000000000E+00  0.00000000000E+00 -0.20368254662E+03  0.20368254662E+03  0.00000000000E+00 0.  1.
        6    2    1    2  501    0  0.52920585530E+02 -0.44161184590E+02  0.20631868047E+03  0.27569169129E+03  0.16937447310E+03 0.  0.
       24    2    3    3    0    0 -0.18096465320E+02 -0.66847755803E+02  0.99254872412E+02  0.14514342044E+03  0.80118526494E+02 0.  0.
       -6    2    1    2    0  504 -0.52920585530E+02  0.44161184590E+02 -0.11828230320E+03  0.21970977922E+03  0.17184552726E+03 0.  0.
      -24    2    5    5    0    0 -0.29830338444E+02  0.69691515232E+00  0.85619286783E+01  0.83570690834E+02  0.77591358806E+02 0.  0.
        5    1    3    3  501    0  0.71017050850E+02  0.22686571214E+02  0.10706380806E+03  0.13054827085E+03  0.47000000000E+01 0. -1.
        2    1    4    4  502    0 -0.25495717410E+02  0.10942269984E+02  0.27106651199E+02  0.38788341262E+02  0.00000000000E+00 0. -1.
       -1    1    4    4    0  502  0.73992520903E+01 -0.77790025787E+02  0.72148221213E+02  0.10635507918E+03  0.00000000000E+00 0.  1.
       -5    1    5    5    0  504 -0.23090247086E+02  0.43464269437E+02 -0.12684423187E+03  0.13613908839E+03  0.47000000000E+01 0.  1.
       13    1    6    6    0    0 -0.52795116115E+02 -0.13885948167E+02 -0.13775106016E+01  0.54608070627E+02  0.00000000000E+00 0. -1.
      -14    1    6    6    0    0  0.22964777671E+02  0.14582863320E+02  0.99394392799E+01  0.28962620208E+02  0.00000000000E+00 0.  1.
</event>
<event>
12   0  0.1523332E-01  0.2307654E+03  0.7957747E-01  0.1133115E+00
       21   -1    0    0  504  503  0.00000000000E+00  0.00000000000E+00  0.61363749728E+02  0.61363749728E+02  0.00000000000E+00 0. -1.
       21   -1    0    0  501  504  0.00000000000E+00  0.00000000000E+00 -0.90094825124E+03  0.90094825124E+03  0.00000000000E+00 0. -1.
        6    2    1    2  501    0 -0.24616887065E+02  0.14882367541E+03 -0.51609114023E+03  0.56494486281E+03  0.17337287995E+03 0.  0.
       24    2    3    3    0    0  0.52965653164E+02  0.56127460288E+02 -0.25260745708E+03  0.27501835465E+03  0.76608849423E+02 0.  0.
       -6    2    1    2    0  503  0.24616887065E+02 -0.14882367541E+03 -0.32349336128E+03  0.39736713816E+03  0.17463736771E+03 0.  0.
      -24    2    5    5    0    0 -0.48204123317E+02 -0.10017823684E+03 -0.15022744171E+03  0.20317020942E+03  0.79690232216E+02 0.  0.
        5    1    3    3  501    0 -0.77582540230E+02  0.92696215126E+02 -0.26348368315E+03  0.28992650816E+03  0.47000000000E+01 0. -1.
        2    1    4    4  502    0  0.34957212763E+02  0.22665467618E+02 -0.35874116121E+02  0.54978926454E+02  0.00000000000E+00 0. -1.
       -1    1    4    4    0  502  0.18008440401E+02  0.33461992670E+02 -0.21673334096E+03  0.22003942820E+03  0.00000000000E+00 0.  1.
       -5    1    5    5    0  503  0.72821010383E+02 -0.48645438577E+02 -0.17326591957E+03  0.19419692874E+03  0.47000000000E+01 0.  1.
       13    1    6    6    0    0  0.54398259484E-01 -0.57549290867E+02 -0.25797404478E+02  0.63066868610E+02  0.00000000000E+00 0. -1.
      -14    1    6    6    0    0 -0.48258521577E+02 -0.42628945970E+02 -0.12443003723E+03  0.14010334081E+03  0.00000000000E+00 0.  1.
</event>
<event>
12   0  0.1523332E-01  0.1963380E+03  0.7957747E-01  0.1159005E+00
       21   -1    0    0  501  503  0.00000000000E+00  0.00000000000E+00  0.57880127310E+02  0.57880127310E+02  0.00000000000E+00 0.  1.
       21   -1    0    0  503  504  0.00000000000E+00  0.00000000000E+00 -0.79400950688E+03  0.79400950688E+03  0.00000000000E+00 0.  1.
        6    2    1    2  501    0  0.57911048233E+02 -0.55765652925E+02 -0.18062134970E+03  0.26270563072E+03  0.17299329147E+03 0.  0.
       24    2    3    3    0    0 -0.21072314029E+02 -0.52435969945E+02 -0.36827868045E+02  0.98546824476E+02  0.71844355290E+02 0.  0.
       -6    2    1    2    0  504 -0.57911048233E+02  0.55765652925E+02 -0.55550802987E+03  0.58918400346E+03  0.17912320099E+03 0.  0.
      -24    2    5    5    0    0 -0.70226370259E+02  0.99297461087E+02 -0.35850352933E+03  0.38699708818E+03  0.80313366634E+02 0.  0.
        5    1    3    3  501    0  0.78983362262E+02 -0.33296829808E+01 -0.14379348165E+03  0.16415880625E+03  0.47000000000E+01 0. -1.
      -11    1    4    4    0    0  0.14746693966E+02 -0.21054571150E+02  0.13688525050E+02  0.29122768880E+02  0.00000000000E+00 0.  1.
       12    1    4    4    0    0 -0.35819007994E+02 -0.31381398795E+02 -0.50516393095E+02  0.69424055596E+02  0.00000000000E+00 0. -1.
       -5    1    5    5    0  504  0.12315322025E+02 -0.43531808162E+02 -0.19700450054E+03  0.20218691528E+03  0.47000000000E+01 0.  1.
        3    1    6    6  502    0 -0.65402159013E+02  0.54450023386E+02 -0.13959739282E+03  0.16349213906E+03  0.00000000000E+00 0. -1.
       -4    1    6    6    0  502 -0.48242112461E+01  0.44847437701E+02 -0.21890613651E+03  0.22350494913E+03  0.00000000000E+00 0.  1.
</event>
<event>
12   0  0.1523332E-01  0.1782305E+03  0.7957747E-01  0.1175085E+00
        2   -1    0    0  502    0  0.00000000000E+00  0.00000000000E+00  0.72094678617E+03  0.72094678617E+03  0.00000000000E+00 0. -1.
       -2   -1    0    0    0  501  0.00000000000E+00  0.00000000000E+00 -0.45901392599E+02  0.45901392599E+02  0.00000000000E+00 0.  1.
        6    2    1    2  502    0  0.44834817954E+02 -0.12601073749E+02  0.41520609553E+03  0.45204543502E+03  0.17256890100E+03 0.  0.
       24    2    3    3    0    0  0.86749656074E+02 -0.10696422983E+02  0.37774281618E+03  0.39560016374E+03  0.78548953437E+02 0.  0.
       -6    2    1    2    0  501 -0.44834817954E+02  0.12601073749E+02  0.25983929804E+03  0.31480274376E+03  0.17150906305E+03 0.  0.
      -24    2    5    5    0    0  0.42359235644E+02 -0.68673921610E+01  0.13115036070E+03  0.15807126401E+03  0.77101501123E+02 0.  0.
        5    1    3    3  502    0 -0.41914838120E+02 -0.19046507659E+01  0.37463279351E+02  0.56445271271E+02  0.47000000000E+01 0. -1.
      -11    1    4    4    0    0  0.65233629751E+01  0.11232098974E+02  0.53747290895E+01  0.14057098728E+02  0.00000000000E+00 0.  1.
       12    1    4    4    0    0  0.80226293099E+02 -0.21928521956E+02  0.37236808709E+03  0.38154306502E+03  0.00000000000E+00 0. -1.
       -5    1    5    5    0  501 -0.87194053598E+02  0.19468465910E+02  0.12868893735E+03  0.15673147975E+03  0.47000000000E+01 0.  1.
        1    1    6    6  503    0 -0.22286777353E+02 -0.61261498768E+01  0.42100552713E+02  0.48027978261E+02  0.00000000000E+00 0. -1.
       -2    1    6    6    0  503  0.64646012997E+02 -0.74124228415E+00  0.89049807982E+02  0.11004328575E+03  0.00000000000E+00 0.  1.
</event>
<event>
12   0  0.1523332E-01  0.1799807E+03  0.7957747E-01  0.1173441E+00
       21   -1    0    0  504  503  0.00000000000E+00  0.00000000000E+00  0.16989097851E+03  0.16989097851E+03  0.00000000000E+00 0. -1.
       21   -1    0    0  501  504  0.00000000000E+00  0.00000000000E+00 -0.34178859211E+03  0.34178859211E+03  0.00000000000E+00 0. -1.
        6    2    1    2  501    0 -0.46811170652E+02 -0.22768294979E-01 -0.25623228328E+03  0.31291998246E+03  0.17341466551E+03 0.  0.
       24    2    3    3    0    0  0.18123339967E+02  0.50105639600E+02 -0.15485711636E+03  0.18242721479E+03  0.80373699911E+02 0.  0.
       -6    2    1    2    0  503  0.46811170652E+02  0.22768294979E-01  0.84334669679E+02  0.19875958815E+03  0.17378651028E+03 0.  0.
      -24    2    5    5    0    0  0.52646141904E+02  0.25222871239E+02  0.12040627564E+03  0.15412392041E+03  0.76476807829E+02 0.  0.
        5    1    3    3  501    0 -0.64934510619E+02 -0.50128407895E+02 -0.10137516692E+03  0.13049276767E+03  0.47000000000E+01 0. -1.
        2    1    4    4  502    0  0.30838157159E+02 -0.70888482165E+01 -0.26289831552E+02  0.41138776708E+02  0.00000000000E+00 0. -1.
       -1    1    4    4    0  502 -0.12714817191E+02  0.57194487816E+02 -0.12856728481E+03  0.14128843808E+03  0.00000000000E+00 0.  1.
       -5    1    5    5    0  503 -0.58349712525E+01 -0.25200102944E+02 -0.36071605966E+02  0.44635667743E+02  0.47000000000E+01 0.  1.
       13    1    6    6    0    0  0.97568802243E-01 -0.23546900318E+02  0.20925567246E+02  0.31501514230E+02  0.00000000000E+00 0. -1.
      -14    1    6    6    0    0  0.52548573102E+02  0.48769771557E+02  0.99480708399E+02  0.12262240618E+03  0.00000000000E+00 0.  1.
</event>
<event>
12   0  0.1523332E-01  0.2542132E+03  0.7957747E-01  0.1118155E+00
       21   -1    0    0  501  503  0.00000000000E+00  0.00000000000E+00  0.78949305022E+03  0.78949305022E+03  0.00000000000E+00 0. -1.
       21   -1    0    0  503  504  0.00000000000E+00  0.00000000000E+00 -0.11381714603E+03  0.11381714603E+03  0.00000000000E+00 0.  1.
        6    2    1    2  501    0 -0.30075806935E+01 -0.18619195059E+03  0.57869520746E+03  0.63206999389E+03  0.17305445970E+03 0.  0.
       24    2    3    3    0    0 -0.75646002532E+01 -0.20100581459E+02  0.14512758974E+03  0.16773167061E+03  0.81305839082E+02 0.  0.
       -6    2    1    2    0  504  0.30075806935E+01  0.18619195059E+03  0.96980696726E+02  0.27124020236E+03  0.17172508213E+03 0.  0.
      -24    2    5    5    0    0  0.10065345529E+01  0.62448802479E+02  0.10669386480E+03  0.14701135496E+03  0.79548046233E+02 0.  0.
        5    1    3    3  501    0  0.45570195597E+01 -0.16609136913E+03  0.43356761772E+03  0.46433832328E+03  0.47000000000E+01 0. -1.
      -11    1    4    4    0    0 -0.21685255962E+02  0.88185321265E+00  0.13484393468E+01  0.21745028854E+02  0.00000000000E+00 0.  1.
       12    1    4    4    0    0  0.14120655708E+02 -0.20982434672E+02  0.14377915039E+03  0.14598664175E+03  0.00000000000E+00 0. -1.
       -5    1    5    5    0  504  0.20010461405E+01  0.12374314811E+03 -0.97131680749E+01  0.12422884739E+03  0.47000000000E+01 0.  1.
        1    1    6    6  502    0  0.79599653264E+01 -0.18358770158E+02  0.22320833292E+02  0.29977076051E+02  0.00000000000E+00 0. -1.
       -2    1    6    6    0  502 -0.69534307734E+01  0.80807572636E+02  0.84373031509E+02  0.11703427891E+03  0.00000000000E+00 0.  1.
</event>
<event>
12   0  0.1523332E-01  0.1929375E+03  0.7957747E-01  0.1161876E+00
       21   -1    0    0  501  503  0.00000000000E+00  0.00000000000E+00  0.10146180881E+04  0.10146180881E+04  0.00000000000E+00 0. -1.
       21   -1    0    0  503  504  0.00000000000E+00  0.00000000000E+00 -0.38211641272E+02  0.38211641272E+02  0.00000000000E+00 0. -1.
        6    2    1    2  501    0  0.12329227656E+01  0.71414114935E+02  0.63723991545E+03  0.66580746541E+03  0.17922995074E+03 0.  0.
       24    2    3    3    0    0 -0.62608438823E+02  0.78491402092E+01  0.31575855293E+03  0.33190840595E+03  0.80487890877E+02 0.  0.
       -6    2    1    2    0  504 -0.12329227656E+01 -0.71414114935E+02  0.33916653141E+03  0.38702226399E+03  0.17219407913E+03 0.  0.
      -24    2    5    5    0    0 -0.37904128103E+02  0.71348778697E+01  0.23382421854E+03  0.25051653352E+03  0.81222773778E+02 0.  0.
        5    1    3    3  501    0  0.63841361589E+02  0.63564974726E+02  0.32148136252E+03  0.33389905946E+03  0.47000000000E+01 0. -1.
      -13    1    4    4    0    0 -0.12553774479E+02 -0.30699351955E+02  0.61009061201E+02  0.69441723861E+02  0.00000000000E+00 0.  1.
       14    1    4    4    0    0 -0.50054664344E+02  0.38548492164E+02  0.25474949173E+03  0.26246668209E+03  0.00000000000E+00 0. -1.
       -5    1    5    5    0  504  0.36671205338E+02 -0.78548992805E+02  0.10534231287E+03  0.13650573047E+03  0.47000000000E+01 0.  1.
        1    1    6    6  502    0 -0.24107841608E+02  0.44032895479E+02  0.14142851697E+03  0.15007367965E+03  0.00000000000E+00 0. -1.
       -2    1    6    6    0  502 -0.13796286496E+02 -0.36898017609E+02  0.92395701577E+02  0.10044285387E+03  0.00000000000E+00 0.  1.
</event>
<event>
12   0  0.1523332E-01  0.2333170E+03  0.7957747E-01  0.1131395E+00
       21   -1    0    0  501  503  0.00000000000E+00  0.00000000000E+00  0.20220959555E+03  0.20220959555E+03  0.00000000000E+00 0. -1.
       21   -1    0    0  503  504  0.00000000000E+00  0.00000000000E+00 -0.81546193409E+03  0.81546193409E+03  0.00000000000E+00 0. -1.
        6    2    1    2  501    0  0.12778136377E+03  0.74888516154E+02  0.11387046300E+03  0.25403261151E+03  0.17213285156E+03 0.  0.
       24    2    3    3    0    0  0.72838949262E+02  0.11000190243E+02  0.12705239422E+03  0.16861457822E+03  0.82837481838E+02 0.  0.
       -6    2    1    2    0  504 -0.12778136377E+03 -0.74888516154E+02 -0.72712280154E+03  0.76363891813E+03  0.18027884507E+03 0.  0.
      -24    2    5    5    0    0 -0.12139525232E+03 -0.11992249613E+02 -0.31219377525E+03  0.34389505621E+03  0.76930065912E+02 0.  0.
        5    1    3    3  501    0  0.54942414509E+02  0.63888325911E+02 -0.13181931219E+02  0.85418033286E+02  0.47000000000E+01 0. -1.
      -13    1    4    4    0    0  0.13636048913E+02  0.35059519949E+02  0.16840166975E+02  0.41215324732E+02  0.00000000000E+00 0.  1.
       14    1    4    4    0    0  0.59202900348E+02 -0.24059329706E+02  0.11021222725E+03  0.12739925349E+03  0.00000000000E+00 0. -1.
       -5    1    5    5    0  504 -0.63861114527E+01 -0.62896266540E+02 -0.41492902629E+03  0.41974386192E+03  0.47000000000E+01 0.  1.
        3    1    6    6  502    0 -0.59880028754E+02  0.77019840206E+01 -0.23793843849E+03  0.24547838787E+03  0.00000000000E+00 0. -1.
       -4    1    6    6    0  502 -0.61515223564E+02 -0.19694233634E+02 -0.74255336766E+02  0.98416668338E+02  0.00000000000E+00 0.  1.
</event>
<event>
12   0  0.1523332E-01  0.1787901E+03  0.7957747E-01  0.1174557E+00
       21   -1    0    0  501  503  0.00000000000E+00  0.00000000000E+00  0.97595279205E+02  0.97595279205E+02  0.00000000000E+00 0. -1.
       21   -1    0    0  503  504  0.00000000000E+00  0.00000000000E+00 -0.34794454407E+03  0.34794454407E+03  0.00000000000E+00 0. -1.
        6    2    1    2  501    0  0.78720979161E+01 -0.39770595517E+02 -0.71088269117E+02  0.19240435828E+03  0.17413277947E+03 0.  0.
       24    2    3    3    0    0  0.48031087065E+02  0.22417369294E+02  0.38998187903E+01  0.86927390631E+02  0.68786909253E+02 0.  0.
       -6    2    1    2    0  504 -0.78720979161E+01  0.39770595517E+02 -0.17926099575E+03  0.25313546499E+03  0.17406719636E+03 0.  0.
      -24    2    5    5    0    0 -0.56555924754E+02  0.50584252406E+02 -0.72280060017E+02  0.13500815748E+03  0.85120246085E+02 0.  0.
        5    1    3    3  501    0 -0.40158989149E+02 -0.62187964811E+02 -0.74988087908E+02  0.10547696765E+03  0.47000000000E+01 0. -1.
        4    1    4    4  502    0  0.54302496034E+02 -0.87867839873E+01  0.21260546513E+01  0.55049875175E+02  0.00000000000E+00 0. -1.
       -3    1    4    4    0  502 -0.62714089690E+01  0.31204153281E+02  0.17737641390E+01  0.31877515456E+02  0.00000000000E+00 0.  1.
       -5    1    5    5    0  504  0.48683826837E+02 -0.10813656889E+02 -0.10698093573E+03  0.11812730751E+03  0.47000000000E+01 0.  1.
       11    1    6    6    0    0  0.19405971116E+02  0.11339370423E+02 -0.35310839950E+02  0.41857238974E+02  0.00000000000E+00 0. -1.
      -12    1    6    6    0    0 -0.75961895869E+02  0.39244881983E+02 -0.36969220066E+02  0.93150918504E+02  0.00000000000E+00 0.  1.
</event>
<event>
12   0  0.1523332E-01  0.1853665E+03  0.7957747E-01  0.1168508E+00
       21   -1    0    0  504  503  0.00000000000E+00  0.00000000000E+00  0.29441499159E+03  0.29441499159E+03  0.00000000000E+00 0.  1.
       21   -1    0    0  501  504  0.00000000000E+00  0.00000000000E+00 -0.11455981196E+03  0.11455981196E+03  0.00000000000E+00 0.  1.
        6    2    1    2  501    0 -0.44020186911E+02 -0.31982016744E+02  0.10532180442E+03  0.21319805180E+03  0.17720073520E+03 0.  0.
       24    2    3    3    0    0 -0.74738767441E+02 -0.26253563854E+02  0.13138627377E+03  0.17223596049E+03  0.78279883605E+02 0.  0.
       -6    2    1    2    0  503  0.44020186911E+02  0.31982016744E+02  0.74533375212E+02  0.19577675174E+03  0.17266350584E+03 0.  0.
      -24    2    5    5    0    0  0.87743128485E+02  0.50874439933E+02  0.34288118468E+02  0.13324364080E+03  0.79316628206E+02 0.  0.
        5    1    3    3  501    0  0.30718580530E+02 -0.57284528905E+01 -0.26064469350E+02  0.40962091313E+02  0.47000000000E+01 0. -1.
        4    1    4    4  502    0 -0.36239364199E+02 -0.50604662037E+02  0.53831115011E+02  0.82291629469E+02  0.00000000000E+00 0. -1.
       -3    1    4    4    0  502 -0.38499403242E+02  0.24351098183E+02  0.77555158757E+02  0.89944331019E+02  0.00000000000E+00 0.  1.
       -5    1    5    5    0  503 -0.43722941574E+02 -0.18892423188E+02  0.40245256744E+02  0.62533110942E+02  0.47000000000E+01 0.  1.
       13    1    6    6    0    0  0.48348171086E+02 -0.15897692272E+02  0.18300558780E+02  0.54085050786E+02  0.00000000000E+00 0. -1.
      -14    1    6    6    0    0  0.39394957400E+02  0.66772132205E+02  0.15987559689E+02  0.79158590011E+02  0.00000000000E+00 0.  1.
</event>
<event>
12   0  0.1523332E-01  0.1804398E+03  0.7957747E-01  0.1173013E+00
       21   -1    0    0  501  503  0.00000000000E+00  0.00000000000E+00  0.13927550951E+03  0.13927550951E+03  0.00000000000E+00 0.  1.
       21   -1    0    0  503  504  0.00000000000E+00  0.00000000000E+00 -0.24625135974E+03  0.24625135974E+03  0.00000000000E+00 0.  1.
        6    2    1    2  501    0 -0.20257933425E+02  0.47612470113E+02 -0.97557246574E+01  0.18070331766E+03  0.17286174728E+03 0.  0.
       24    2    3    3    0    0 -0.68339965735E+02  0.60819117257E+02  0.21728699891E+02  0.12154542428E+03  0.77018425227E+02 0.  0.
       -6    2    1    2    0  504  0.20257933425E+02 -0.47612470113E+02 -0.97220125570E+02  0.20482355158E+03  0.17269511658E+03 0.  0.
      -24    2    5    5    0    0 -0.23038562925E+02  0.13872218997E+02 -0.97171721934E+02  0.12947737760E+03  0.81233207034E+02 0.  0.
        5    1    3    3  501    0  0.48082032310E+02 -0.13206647144E+02 -0.31484424549E+02  0.59157893378E+02  0.47000000000E+01 0. -1.
      -13    1    4    4    0    0  0.12689810207E+02  0.27727112968E+02  0.14371966274E+02  0.33710198623E+02  0.00000000000E+00 0.  1.
       14    1    4    4    0    0 -0.81029775942E+02  0.33092004289E+02  0.73567336175E+01  0.87835225659E+02  0.00000000000E+00 0. -1.
       -5    1    5    5    0  504  0.43296496350E+02 -0.61484689110E+02 -0.48403636669E-01  0.75346173984E+02  0.47000000000E+01 0.  1.
        1    1    6    6  502    0 -0.45763435382E+01  0.24505854518E+02  0.47282351087E+01  0.25373924274E+02  0.00000000000E+00 0. -1.
       -2    1    6    6    0  502 -0.18462219386E+02 -0.10633635521E+02 -0.10189995704E+03  0.10410345333E+03  0.00000000000E+00 0.  1.
</event>
<event>
12   0  0.1523332E-01  0.1850778E+03  0.7957747E-01  0.1168768E+00
       21   -1    0    0  504  503  0.00000000000E+00  0.00000000000E+00  0.24539312109E+03  0.24539312109E+03  0.00000000000E+00 0.  1.
       21   -1    0    0  501  504  0.00000000000E+00  0.00000000000E+00 -0.31893440941E+03  0.31893440941E+03  0.00000000000E+00 0.  1.
        6    2    1    2  501    0  0.46125950528E+02 -0.37966048404E+02 -0.25178489043E+03  0.30737506934E+03  0.16587579106E+03 0.  0.
       24    2    3    3    0    0 -0.34205037875E+02 -0.67730835179E+01 -0.15160561873E+03  0.17514782089E+03  0.80477551237E+02 0.  0.
       -6    2    1    2    0  503 -0.46125950528E+02  0.37966048404E+02  0.17824360211E+03  0.25695246117E+03  0.17517066382E+03 0.  0.
      -24    2    5    5    0    0  0.28673332367E+02 -0.19437814143E+02  0.76699760333E+02  0.11830406428E+03  0.83144511432E+02 0.  0.
        5    1    3    3  501    0  0.80330988403E+02 -0.31192964886E+02 -0.10017927170E+03  0.13222724846E+03  0.47000000000E+01 0. -1.
      -11    1    4    4    0    0 -0.36668202829E+01 -0.40693640552E+02 -0.86179094211E+02  0.95374284959E+02  0.00000000000E+00 0.  1.
       12    1    4    4    0    0 -0.30538217592E+02  0.33920557034E+02 -0.65426524522E+02  0.79773535926E+02  0.00000000000E+00 0. -1.
       -5    1    5    5    0  503 -0.74799282896E+02  0.57403862547E+02  0.10154384178E+03  0.13864839689E+03  0.47000000000E+01 0.  1.
        1    1    6    6  502    0  0.49914577634E+02  0.17308280114E+01  0.72477977420E+02  0.88019986576E+02  0.00000000000E+00 0. -1.
       -2    1    6    6    0  502 -0.21241245266E+02 -0.21168642154E+02  0.42217829123E+01  0.30284077699E+02  0.00000000000E+00 0.  1.
</event>
<event>
12   0  0.1523332E-01  0.2219367E+03  0.7957747E-01  0.1139260E+00
       21   -1    0    0  504  503  0.00000000000E+00  0.00000000000E+00  0.11136951283E+03  0.11136951283E+03  0.00000000000E+00 0. -1.
       21   -1    0    0  501  504  0.00000000000E+00  0.00000000000E+00 -0.50968368865E+03  0.50968368865E+03  0.00000000000E+00 0. -1.
        6    2    1    2  501    0  0.86926086114E+02  0.10657980523E+03 -0.31447828400E+03  0.38490584625E+03  0.17418530376E+03 0.  0.
       24    2    3    3    0    0  0.25052915891E+02  0.11409912737E+03 -0.13854659370E+03  0.19820051947E+03  0.80262244122E+02 0.  0.
       -6    2    1    2    0  503 -0.86926086114E+02 -0.10657980523E+03 -0.83835891821E+02  0.23614735522E+03  0.17268965601E+03 0.  0.
      -24    2    5    5    0    0 -0.31298069861E+02  0.43725335748E+01  0.52490756191E+00  0.86001652154E+02  0.79983250862E+02 0.  0.
        5    1    3    3  501    0  0.61873170223E+02 -0.75193221402E+01 -0.17593169030E+03  0.18670532679E+03  0.47000000000E+01 0. -1.
      -13    1    4    4    0    0 -0.13840446565E+02  0.24118822352E+02  0.81082919157E+00  0.27819651270E+02  0.00000000000E+00 0.  1.
       14    1    4    4    0    0  0.38893362457E+02  0.89980305016E+02 -0.13935742289E+03  0.17038086820E+03  0.00000000000E+00 0. -1.
       -5    1    5    5    0  503 -0.55628016253E+02 -0.11095233880E+03 -0.84360799382E+02  0.15014570307E+03  0.47000000000E+01 0.  1.
        3    1    6    6  502    0 -0.21267462466E+02 -0.25926302959E+02  0.28156252278E+02  0.43786444103E+02  0.00000000000E+00 0. -1.
       -4    1    6    6    0  502 -0.10030607395E+02  0.30298836534E+02 -0.27631344716E+02  0.42215208051E+02  0.00000000000E+00 0.  1.
</event>
<event>
12   0  0.1523332E-01  0.1831655E+03  0.7957747E-01  0.1170501E+00
       21   -1    0    0  501  503  0.00000000000E+00  0.00000000000E+00  0.19483611012E+03  0.19483611012E+03  0.00000000000E+00 0.  1.
       21   -1    0    0  503  504  0.00000000000E+00  0.00000000000E+00 -0.18750861982E+03  0.18750861982E+03  0.00000000000E+00 0.  1.
        6    2    1    2  501    0 -0.72129570446E+02 -0.22129391567E+02  0.63568825962E+02  0.19388292347E+03  0.16690478566E+03 0.  0.
       24    2    3    3    0    0 -0.69078452819E+02  0.43663242363E+02  0.30053155134E+02  0.11983314164E+03  0.82331514768E+02 0.  0.
       -6    2    1    2    0  504  0.72129570446E+02  0.22129391567E+02 -0.56241335661E+02  0.18846180646E+03  0.16328618972E+03 0.  0.
      -24    2    5    5    0    0  0.25445503307E+02 -0.17267012685E+02  0.23091762333E+02  0.88225539423E+02  0.79403356058E+02 0.  0.
        5    1    3    3  501    0 -0.30511176274E+01 -0.65792633930E+02  0.33515670828E+02  0.74049781832E+02  0.47000000000E+01 0. -1.
        2    1    4    4  502    0 -0.44444678478E+02 -0.12525036235E+02 -0.90853332089E+01  0.47061122566E+02  0.00000000000E+00 0. -1.
       -1    1    4    4    0  502 -0.24633774341E+02  0.56188278598E+02  0.39138488343E+02  0.72772019073E+02  0.00000000000E+00 0.  1.
       -5    1    5    5    0  504  0.46684067139E+02  0.39396404252E+02 -0.79333097994E+02  0.10023626704E+03  0.47000000000E+01 0.  1.
       13    1    6    6    0    0 -0.22032147285E+02 -0.45392172869E+01  0.31141879704E+02  0.38416619829E+02  0.00000000000E+00 0. -1.
      -14    1    6    6    0    0  0.47477650592E+02 -0.12727795398E+02 -0.80501173703E+01  0.49808919594E+02  0.00000000000E+00 0.  1.
</event>
<event>
12   0  0.1523332E-01  0.2376506E+03  0.7957747E-01  0.1128528E+00
       21   -1    0    0  504  503  0.00000000000E+00  0.00000000000E+00  0.16626065572E+03  0.16626065572E+03  0.00000000000E+00 0. -1.
       21   -1    0    0  501  504  0.00000000000E+00  0.00000000000E+00 -0.73304990236E+03  0.73304990236E+03  0.00000000000E+00 0. -1.
        6    2    1    2  501    0  0.12963358057E+03  0.97181018425E+02 -0.61284666055E+03  0.65723806559E+03  0.17358522388E+03 0.  0.
       24    2    3    3    0    0  0.99968117405E+02 -0.58446825079E+01 -0.36801665543E+03  0.38992148143E+03  0.81084635989E+02 0.  0.
       -6    2    1    2    0  503 -0.12963358057E+03 -0.97181018425E+02  0.46057413916E+02  0.24207249249E+03  0.17386428815E+03 0.  0.
      -24    2    5    5    0    0 -0.12223150011E+03 -0.13478617486E+03  0.43615452655E+02  0.20338151473E+03  0.79711230506E+02 0.  0.
        5    1    3    3  501    0  0.29665463160E+02  0.10302570093E+03 -0.24483000513E+03  0.26731658416E+03  0.47000000000E+01 0. -1.
        4    1    4    4  502    0  0.21645703209E+02 -0.20230916186E+02 -0.21869533036E+03  0.22069316699E+03  0.00000000000E+00 0. -1.
       -3    1    4    4    0  502  0.78322414196E+02  0.14386233678E+02 -0.14932132507E+03  0.16922831443E+03  0.00000000000E+00 0.  1.
       -5    1    5    5    0  503 -0.74020804550E+01  0.37605156438E+02  0.24419612607E+01  0.38690977767E+02  0.47000000000E+01 0.  1.
       13    1    6    6    0    0 -0.76780676090E+02 -0.43651337550E+02 -0.89533635891E+01  0.88774288002E+02  0.00000000000E+00 0. -1.
      -14    1    6    6    0    0 -0.45450824021E+02 -0.91134837313E+02  0.52568816244E+02  0.11460722672E+03  0.00000000000E+00 0.  1.
</event>
<event>
12   0  0.1523332E-01  0.1803131E+03  0.7957747E-01  0.1173131E+00
       21   -1    0    0  501  503  0.00000000000E+00  0.00000000000E+00  0.65806057739E+02  0.65806057739E+02  0.00000000000E+00 0.  1.
       21   -1    0    0  503  504  0.00000000000E+00  0.00000000000E+00 -0.49299169731E+03  0.49299169731E+03  0.00000000000E+00 0.  1.
        6    2    1    2  501    0 -0.48763376644E+02 -0.50858359319E+01 -0.19392418943E+03  0.26396947842E+03  0.17224854619E+03 0.  0.
       24    2    3    3    0    0 -0.71021158222E+02 -0.46604860569E+02 -0.17873400045E+03  0.21424956200E+03  0.82103678101E+02 0.  0.
       -6    2    1    2    0  504  0.48763376644E+02  0.50858359319E+01 -0.23326145014E+03  0.29482827662E+03  0.17351967020E+03 0.  0.
      -24    2    5    5    0    0  0.76557764075E+02  0.23682958846E+02 -0.23134951866E+03  0.26100333856E+03  0.90433230459E+02 0.  0.
        5    1    3    3  501    0  0.22257781578E+02  0.41519024637E+02 -0.15190188976E+02  0.49719916419E+02  0.47000000000E+01 0. -1.
      -11    1    4    4    0    0  0.54295894954E+01 -0.38485576042E+02 -0.81502668470E+02  0.90295653124E+02  0.00000000000E+00 0.  1.
       12    1    4    4    0    0 -0.76450747717E+02 -0.81192845270E+01 -0.97231331981E+02  0.12395390888E+03  0.00000000000E+00 0. -1.
       -5    1    5    5    0  504 -0.27794387431E+02 -0.18597122914E+02 -0.19119314783E+01  0.33824938068E+02  0.47000000000E+01 0.  1.
        1    1    6    6  502    0  0.22053521764E+02  0.54092722141E+02 -0.11255891823E+03  0.12681439384E+03  0.00000000000E+00 0. -1.
       -2    1    6    6    0  502  0.54504242311E+02 -0.30409763295E+02 -0.11879060043E+03  0.13418894472E+03  0.00000000000E+00 0.  1.
</event>
<event>
12   0  0.1523332E-01  0.2403643E+03  0.7957747E-01  0.1126767E+00
       21   -1    0    0  504  503  0.00000000000E+00  0.00000000000E+00  0.15551595807E+03  0.15551595807E+03  0.00000000000E+00 0.  1.
       21   -1    0    0  501  504  0.00000000000E+00  0.00000000000E+00 -0.37860149772E+03  0.37860149772E+03  0.00000000000E+00 0.  1.
        6    2    1    2  501    0 -0.12662316066E+02  0.16637484630E+03 -0.15214356081E+03  0.28446906824E+03  0.17301463511E+03 0.  0.
       24    2    3    3    0    0 -0.27967952942E+02  0.12757728725E+03 -0.31594076854E+02  0.15682197196E+03  0.80850322092E+02 0.  0.
       -6    2    1    2    0  503  0.12662316066E+02 -0.16637484630E+03 -0.70941978834E+02  0.24964838754E+03  0.17161185656E+03 0.  0.
      -24    2    5    5    0    0 -0.16980976297E+02 -0.96070689206E+02  0.22500296362E+02  0.12892163790E+03  0.81219421944E+02 0.  0.
        5    1    3    3  501    0  0.15305636877E+02  0.38797559047E+02 -0.12054948396E+03  0.12764709629E+03  0.47000000000E+01 0. -1.
        2    1    4    4  502    0  0.23791649273E+02  0.33235510578E+02  0.89282526154E+01  0.41837249351E+02  0.00000000000E+00 0. -1.
       -1    1    4    4    0  502 -0.51759602216E+02  0.94341776673E+02 -0.40522329469E+02  0.11498472261E+03  0.00000000000E+00 0.  1.
       -5    1    5    5    0  503  0.29643292363E+02 -0.70304157092E+02 -0.93442275197E+02  0.12072674965E+03  0.47000000000E+01 0.  1.
       11    1    6    6    0    0  0.29402362214E+02 -0.40129782026E+02 -0.74867042216E+01  0.50308538533E+02  0.00000000000E+00 0. -1.
      -12    1    6    6    0    0 -0.46383338511E+02 -0.55940907181E+02  0.29987000584E+02  0.78613099364E+02  0.00000000000E+00 0.  1.
</event>
<event>
12   0  0.1523332E-01  0.1928191E+03  0.7957747E-01  0.1161977E+00
       21   -1    0    0  501  503  0.00000000000E+00  0.00000000000E+00  0.10523952819E+03  0.10523952819E+03  0.00000000000E+00 0.  1.
       21   -1    0    0  503  504  0.00000000000E+00  0.00000000000E+00 -0.36364089802E+03  0.36364089802E+03  0.00000000000E+00 0.  1.
        6    2    1    2  501    0  0.47546885265E+01 -0.85004788174E+02 -0.18095100211E+03  0.26108781745E+03  0.16785458642E+03 0.  0.
       24    2    3    3    0    0  0.48900530292E+02 -0.14228660340E+02 -0.51463396789E+02  0.10698640426E+03  0.78764794476E+02 0.  0.
       -6    2    1    2    0  504 -0.47546885265E+01  0.85004788174E+02 -0.77450367726E+02  0.20779260876E+03  0.17300516674E+03 0.  0.
      -24    2    5    5    0    0 -0.30445512847E+02  0.77098408344E+02  0.10684576136E+02  0.11553000731E+03  0.79761698827E+02 0.  0.
        5    1    3    3  501    0 -0.44145841766E+02 -0.70776127834E+02 -0.12948760532E+03  0.15410141320E+03  0.47000000000E+01 0. -1.
      -13    1    4    4    0    0  0.18870651345E+02  0.15781074066E+02  0.14490176728E+02  0.28550113879E+02  0.00000000000E+00 0.  1.
       14    1    4    4    0    0  0.30029878947E+02 -0.30009734406E+02 -0.65953573517E+02  0.78436290379E+02  0.00000000000E+00 0. -1.
       -5    1    5    5    0  504  0.25690824321E+02  0.79063798298E+01 -0.88134943861E+02  0.92262601447E+02  0.47000000000E+01 0.  1.
        1    1    6    6  502    0 -0.45783433689E+02  0.11257589821E+02  0.40299134852E+00  0.47148897452E+02  0.00000000000E+00 0. -1.
       -2    1    6    6    0  502  0.15337920841E+02  0.65840818523E+02  0.10281584787E+02  0.68381109857E+02  0.00000000000E+00 0.  1.
</event>
<event>
12   0  0.1523332E-01  0.2473883E+03  0.7957747E-01  0.1122322E+00
       21   -1    0    0  501  503  0.00000000000E+00  0.00000000000E+00  0.46033148136E+03  0.46033148136E+03  0.00000000000E+00 0. -1.
       21   -1    0    0  503  504  0.00000000000E+00  0.00000000000E+00 -0.14113567747E+03  0.14113567747E+03  0.00000000000E+00 0.  1.
        6    2    1    2  501    0 -0.15639005953E+03 -0.80869011901E+02  0.23224294907E+03  0.33924252423E+03  0.17364059160E+03 0.  0.
       24    2    3    3    0    0 -0.62004952238E+02 -0.10807787886E+03  0.15016312833E+03  0.21114858257E+03  0.80680337185E+02 0.  0.
       -6    2    1    2    0  504  0.15639005953E+03  0.80869011901E+02  0.86952854818E+02  0.26222463460E+03  0.17379100157E+03 0.  0.
      -24    2    5    5    0    0  0.16524083407E+03  0.23575255169E+02  0.86932583096E+02  0.20406106197E+03  0.78888003567E+02 0.  0.
        5    1    3    3  501    0 -0.94385107287E+02  0.27208866959E+02  0.82079820743E+02  0.12809394167E+03  0.47000000000E+01 0. -1.
      -11    1    4    4    0    0 -0.40116168026E+01  0.62256069220E+01 -0.57046479357E+01  0.93484896635E+01  0.00000000000E+00 0.  1.
       12    1    4    4    0    0 -0.57993335436E+02 -0.11430348578E+03  0.15586777627E+03  0.20180009290E+03  0.00000000000E+00 0. -1.
       -5    1    5    5    0  504 -0.88507745464E+01  0.57293756732E+02  0.20271721382E-01  0.58163572634E+02  0.47000000000E+01 0.  1.
        3    1    6    6  502    0  0.11563156460E+03 -0.20831680475E+02  0.47899080564E+02  0.12688159662E+03  0.00000000000E+00 0. -1.
       -4    1    6    6    0  502  0.49609269474E+02  0.44406935644E+02  0.39033502533E+02  0.77179465346E+02  0.00000000000E+00 0.  1.
</event>
<event>
12   0  0.1523332E-01  0.1966416E+03  0.7957747E-01  0.1158752E+00
       21   -1    0    0  504  503  0.00000000000E+00  0.00000000000E+00  0.26531541107E+03  0.26531541107E+03  0.00000000000E+00 0.  1.
       21   -1    0    0  501  504  0.00000000000E+00  0.00000000000E+00 -0.15429243399E+03  0.15429243399E+03  0.00000000000E+00 0.  1.
        6    2    1    2  501    0 -0.54294877378E+02 -0.65804112157E+02  0.11171994386E+03  0.22616205143E+03  0.17717170419E+03 0.  0.
       24    2    3    3    0    0 -0.88559818233E+02  0.18236487181E+01  0.83683588811E+02  0.14519460478E+03  0.78945317279E+02 0.  0.
       -6    2    1    2    0  503  0.54294877378E+02  0.65804112157E+02 -0.69696678260E+00  0.19344579363E+03  0.17361645782E+03 0.  0.
      -24    2    5    5    0    0 -0.27837235082E+01  0.11671170730E+02  0.53396689002E+02  0.97860462002E+02  0.81126433942E+02 0.  0.
        5    1    3    3  501    0  0.34264940855E+02 -0.67627760875E+02  0.28036355046E+02  0.80967446650E+02  0.47000000000E+01 0. -1.
      -13    1    4    4    0    0 -0.46215634786E+02 -0.34132528407E+02  0.64611042770E+02  0.86460981037E+02  0.00000000000E+00 0.  1.
       14    1    4    4    0    0 -0.42344183448E+02  0.35956177125E+02  0.19072546041E+02  0.58733623741E+02  0.00000000000E+00 0. -1.
       -5    1    5    5    0  503  0.57078600887E+02  0.54132941427E+02 -0.54093655784E+02  0.95585331630E+02  0.47000000000E+01 0.  1.
        3    1    6    6  502    0  0.10699566928E+02 -0.33088562478E+02  0.28091628402E+02  0.44704287105E+02  0.00000000000E+00 0. -1.
       -4    1    6    6    0  502 -0.13483290436E+02  0.44759733207E+02  0.25305060600E+02  0.53156174897E+02  0.00000000000E+00 0.  1.
</event>
<event>
12   0  0.1523332E-01  0.2235704E+03  0.7957747E-01  0.1138100E+00
       21   -1    0    0  501  503  0.00000000000E+00  0.00000000000E+00  0.43020833216E+03  0.43020833216E+03  0.00000000000E+00 0.  1.
       21   -1    0    0  503  504  0.00000000000E+00  0.00000000000E+00 -0.11486563261E+03  0.11486563261E+03  0.00000000000E+00 0. -1.
        6    2    1    2  501    0  0.87060922988E+02 -0.10503825549E+03  0.14054844986E+03  0.26128400366E+03  0.17292433138E+03 0.  0.
       24    2    3    3    0    0  0.11415822031E+03 -0.33368646727E+02  0.99429172334E+02  0.17419966909E+03  0.79459414507E+02 0.  0.
       -6    2    1    2    0  504 -0.87060922988E+02  0.10503825549E+03  0.17479424969E+03  0.28378996111E+03  0.17711881005E+03 0.  0.
      -24    2    5    5    0    0 -0.10046622373E+03  0.13051981106E+03  0.17664683262E+03  0.25455755057E+03  0.80414923297E+02 0.  0.
        5    1    3    3  501    0 -0.27097297318E+02 -0.71669608768E+02  0.41119277524E+02  0.87084334568E+02  0.47000000000E+01 0. -1.
      -13    1    4    4    0    0  0.56653372394E+02 -0.56045209097E+02  0.43252969287E+02  0.90672429208E+02  0.00000000000E+00 0.  1.
       14    1    4    4    0    0  0.57504847912E+02  0.22676562370E+02  0.56176203047E+02  0.83527239887E+02  0.00000000000E+00 0. -1.
       -5    1    5    5    0  504  0.13405300745E+02 -0.25481555567E+02 -0.18525829295E+01  0.29232410535E+02  0.47000000000E+01 0.  1.
        3    1    6    6  502    0 -0.62126485052E+02  0.12746193514E+03  0.11825071222E+03  0.18463335558E+03  0.00000000000E+00 0. -1.
       -4    1    6    6    0  502 -0.38339738681E+02  0.30578759253E+01  0.58396120398E+02  0.69924194989E+02  0.00000000000E+00 0.  1.
</event>
<event>
12   0  0.1523332E-01  0.1821325E+03  0.7957747E-01  0.1171448E+00
       -2   -1    0    0    0  501  0.00000000000E+00  0.00000000000E+00  0.18946347787E+03  0.18946347787E+03  0.00000000000E+00 0. -1.
        2   -1    0    0  502    0  0.00000000000E+00  0.00000000000E+00 -0.19511946759E+03  0.19511946759E+03  0.00000000000E+00 0.  1.
        6    2    1    2  502    0  0.25653962129E+02  0.48220354484E+02 -0.64410912964E+02  0.19195477174E+03  0.17237906000E+03 0.  0.
       24    2    3    3    0    0  0.19189991662E+02  0.60473827266E+01  0.23959004171E+02  0.93711834514E+02  0.88334859649E+02 0.  0.
       -6    2    1    2    0  501 -0.25653962129E+02 -0.48220354484E+02  0.58754923240E+02  0.19262817372E+03  0.17512893521E+03 0.  0.
      -24    2    5    5    0    0 -0.83817404060E+02 -0.41569340239E+02  0.49477015762E+02  0.13316901518E+03  0.80824774932E+02 0.  0.
        5    1    3    3  502    0  0.64639704668E+01  0.42172971758E+02 -0.88369917134E+02  0.98242937229E+02  0.47000000000E+01 0. -1.
      -11    1    4    4    0    0  0.31802198816E+02  0.19109511157E+02 -0.22802459527E+02  0.43548885482E+02  0.00000000000E+00 0.  1.
       12    1    4    4    0    0 -0.12612207154E+02 -0.13062128431E+02  0.46761463698E+02  0.50162949032E+02  0.00000000000E+00 0. -1.
       -5    1    5    5    0  501  0.58163441931E+02 -0.66510142454E+01  0.92779074784E+01  0.59459158545E+02  0.47000000000E+01 0.  1.
        3    1    6    6  503    0 -0.82210150513E+02 -0.35578920914E+01  0.19076312714E+02  0.84469362198E+02  0.00000000000E+00 0. -1.
       -4    1    6    6    0  503 -0.16072535468E+01 -0.38011448148E+02  0.30400703048E+02  0.48699652977E+02  0.00000000000E+00 0.  1.
</event>
<event>
12   0  0.1523332E-01  0.1818073E+03  0.7957747E-01  0.1171747E+00
       21   -1    0    0  501  503  0.00000000000E+00  0.00000000000E+00  0.53518390205E+02  0.53518390205E+02  0.00000000000E+00 0. -1.
       21   -1    0    0  503  504  0.00000000000E+00  0.00000000000E+00 -0.62181299095E+03  0.62181299095E+03  0.00000000000E+00 0.  1.
        6    2    1    2  501    0 -0.39248292302E+02 -0.38453440779E+02 -0.25604777112E+03  0.31401162659E+03  0.17327361305E+03 0.  0.
       24    2    3    3    0    0 -0.54190530631E+02 -0.67372859966E+02 -0.10006674157E+03  0.15460091530E+03  0.80077302482E+02 0.  0.
       -6    2    1    2    0  504  0.39248292302E+02  0.38453440779E+02 -0.31224682963E+03  0.36131975457E+03  0.17330547273E+03 0.  0.
      -24    2    5    5    0    0 -0.34300720561E+02  0.41170532516E+02 -0.96952359716E+02  0.13374418766E+03  0.74941280350E+02 0.  0.
        5    1    3    3  501    0  0.14942238329E+02  0.28919419187E+02 -0.15598102955E+03  0.15941071129E+03  0.47000000000E+01 0. -1.
      -13    1    4    4    0    0 -0.20764357325E+02 -0.58475560942E+02 -0.10261379418E+03  0.11991722361E+03  0.00000000000E+00 0.  1.
       14    1    4    4    0    0 -0.33426173307E+02 -0.88972990241E+01  0.25470526145E+01  0.34683691685E+02  0.00000000000E+00 0. -1.
       -5    1    5    5    0  504  0.73549012863E+02 -0.27170917368E+01 -0.21529446991E+03  0.22757556691E+03  0.47000000000E+01 0.  1.
        1    1    6    6  502    0 -0.33668515004E+02 -0.13799535409E+02 -0.30335516907E+02  0.47373406740E+02  0.00000000000E+00 0. -1.
       -2    1    6    6    0  502 -0.63220555685E+00  0.54970067925E+02 -0.66616842809E+02  0.86370780924E+02  0.00000000000E+00 0.  1.
</event>
<event>
12   0  0.1523332E-01  0.2488703E+03  0.7957747E-01  0.1121405E+00
       21   -1    0    0  504  503  0.00000000000E+00  0.00000000000E+00  0.60746659879E+03  0.60746659879E+03  0.00000000000E+00 0. -1.
       21   -1    0    0  501  504  0.00000000000E+00  0.00000000000E+00 -0.22977639855E+03  0.22977639855E+03  0.00000000000E+00 0.  1.
        6    2    1    2  501    0 -0.47047034168E+02  0.17321125661E+03 -0.12351875823E+03  0.27764774257E+03  0.17209248235E+03 0.  0.
       24    2    3    3    0    0 -0.42704417716E+02  0.57802878682E+02 -0.12079004680E+03  0.16202988980E+03  0.80613954789E+02 0.  0.
       -6    2    1    2    0  503  0.47047034168E+02 -0.17321125661E+03  0.50120895847E+03  0.55959525477E+03  0.17239740795E+03 0.  0.
      -24    2    5    5    0    0  0.31918941674E+02 -0.12515021987E+02  0.18793393387E+03  0.20715310343E+03  0.80111173670E+02 0.  0.
        5    1    3    3  501    0 -0.43426164514E+01  0.11540837793E+03 -0.27287114288E+01  0.11561785277E+03  0.47000000000E+01 0. -1.
      -13    1    4    4    0    0  0.50471575640E+01  0.57020040367E+02 -0.84430461626E+02  0.10200618439E+03  0.00000000000E+00 0.  1.
       14    1    4    4    0    0 -0.47751575280E+02  0.78283831494E+00 -0.36359585172E+02  0.60023705413E+02  0.00000000000E+00 0. -1.
       -5    1    5    5    0  503  0.15128092494E+02 -0.16069623462E+03  0.31327502460E+03  0.35244215134E+03  0.47000000000E+01 0.  1.
        3    1    6    6  502    0  0.56394414963E+02 -0.20132015723E+02  0.14852002817E+03  0.16013690038E+03  0.00000000000E+00 0. -1.
       -4    1    6    6    0  502 -0.24475473289E+02  0.76169937358E+01  0.39413905698E+02  0.47016203044E+02  0.00000000000E+00 0.  1.
</event>
<event>
12   0  0.1523332E-01  0.2121116E+03  0.7957747E-01  0.1146476E+00
       21   -1    0    0  504  503  0.00000000000E+00  0.00000000000E+00  0.23120445278E+03  0.23120445278E+03  0.00000000000E+00 0.  1.
       21   -1    0    0  501  504  0.00000000000E+00  0.00000000000E+00 -0.27358917284E+03  0.27358917284E+03  0.00000000000E+00 0.  1.
        6    2    1    2  501    0  0.11447333690E+03  0.33912040327E+02 -0.15833952504E+03  0.26305644360E+03  0.17283841006E+03 0.  0.
       24    2    3    3    0    0  0.41335355497E+02  0.26029628163E+02 -0.16302975151E+03  0.18919586568E+03  0.82645160529E+02 0.  0.
       -6    2    1    2    0  503 -0.11447333690E+03 -0.33912040327E+02  0.11595480498E+03  0.24173718202E+03  0.17532021285E+03 0.  0.
      -24    2    5    5    0    0 -0.45391970035E+02  0.29384756248E+02  0.78553453691E+01  0.98606811827E+02  0.82083506531E+02 0.  0.
        5    1    3    3  501    0  0.73137981408E+02  0.78824121641E+01  0.46902264717E+01  0.73860577917E+02  0.47000000000E+01 0. -1.
        4    1    4    4  502    0  0.23108516062E+02 -0.86475318532E+01 -0.14315769992E+03  0.14526840802E+03  0.00000000000E+00 0. -1.
       -3    1    4    4    0  502  0.18226839435E+02  0.34677160016E+02 -0.19872051585E+02  0.43927457663E+02  0.00000000000E+00 0.  1.
       -5    1    5    5    0  503 -0.69081366869E+02 -0.63296796574E+02  0.10809945961E+03  0.14313037020E+03  0.47000000000E+01 0.  1.
       13    1    6    6    0    0 -0.15666569234E+02  0.74476024337E+01  0.43770588783E+02  0.47082614796E+02  0.00000000000E+00 0. -1.
      -14    1    6    6    0    0 -0.29725400801E+02  0.21937153814E+02 -0.35915243414E+02  0.51524197031E+02  0.00000000000E+00 0.  1.
</event>
<event>
12   0  0.1523332E-01  0.1962512E+03  0.7957747E-01  0.1159078E+00
       21   -1    0    0  501  503  0.00000000000E+00  0.00000000000E+00  0.50684816663E+03  0.50684816663E+03  0.00000000000E+00 0.  1.
       21   -1    0    0  503  504  0.00000000000E+00  0.00000000000E+00 -0.75678987263E+02  0.75678987263E+02  0.00000000000E+00 0.  1.
        6    2    1    2  501    0  0.34102214991E+02 -0.85130127787E+02  0.22130633397E+03  0.29519988578E+03  0.17250037502E+03 0.  0.
       24    2    3    3    0    0 -0.62588170082E+01 -0.10157946286E+03  0.21401457642E+03  0.25076056471E+03  0.81982082365E+02 0.  0.
       -6    2    1    2    0  504 -0.34102214991E+02  0.85130127787E+02  0.20986284539E+03  0.28732726811E+03  0.17350632669E+03 0.  0.
      -24    2    5    5    0    0 -0.57190198360E+02  0.63370578054E+01  0.56352956585E+02  0.11317567089E+03  0.79512261170E+02 0.  0.
        5    1    3    3  501    0  0.40361031999E+02  0.16449335075E+02  0.72917575558E+01  0.44439321065E+02  0.47000000000E+01 0. -1.
        4    1    4    4  502    0 -0.26495758646E+02 -0.10334579809E+03  0.15355825582E+03  0.18698266534E+03  0.00000000000E+00 0. -1.
       -3    1    4    4    0  502  0.20236941638E+02  0.17663352302E+01  0.60456320601E+02  0.63777899367E+02  0.00000000000E+00 0.  1.
       -5    1    5    5    0  504  0.23087983369E+02  0.78793069982E+02  0.15350988880E+03  0.17415159722E+03  0.47000000000E+01 0.  1.
       13    1    6    6    0    0 -0.23365877936E+02 -0.27158428123E+02 -0.42882295062E+01  0.36082313980E+02  0.00000000000E+00 0. -1.
      -14    1    6    6    0    0 -0.33824320424E+02  0.33495485928E+02  0.60641186092E+02  0.77093356914E+02  0.00000000000E+00 0.  1.
</event>
<event>
12   0  0.1523332E-01  0.2775504E+03  0.7957747E-01  0.1104915E+00
       21   -1    0    0  504  503  0.00000000000E+00  0.00000000000E+00  0.12687879235E+03  0.12687879235E+03  0.00000000000E+00 0. -1.
       21   -1    0    0  501  504  0.00000000000E+00  0.00000000000E+00 -0.64304733679E+03  0.64304733679E+03  0.00000000000E+00 0. -1.
        6    2    1    2  501    0 -0.55203730476E+02  0.20963894372E+03 -0.16637752173E+03  0.32359805814E+03  0.17331556455E+03 0.  0.
       24    2    3    3    0    0 -0.29587669834E+02  0.85537660640E+02 -0.93145034832E+01  0.12173624223E+03  0.80875404803E+02 0.  0.
       -6    2    1    2    0  503  0.55203730476E+02 -0.20963894372E+03 -0.34979102271E+03  0.44632807100E+03  0.17279771065E+03 0.  0.
      -24    2    5    5    0    0  0.46483810316E+02 -0.14244841677E+03 -0.33740661548E+03  0.37729136002E+03  0.77802635673E+02 0.  0.
        5    1    3    3  501    0 -0.25616060642E+02  0.12410128308E+03 -0.15706301824E+03  0.20186181592E+03  0.47000000000E+01 0. -1.
      -11    1    4    4    0    0  0.58464742975E+01  0.15514643393E+01 -0.28033743470E+02  0.28678896008E+02  0.00000000000E+00 0.  1.
       12    1    4    4    0    0 -0.35434144131E+02  0.83986196301E+02  0.18719239987E+02  0.93057346218E+02  0.00000000000E+00 0. -1.
       -5    1    5    5    0  503  0.87199201598E+01 -0.67190526948E+02 -0.12384407235E+02  0.69036710971E+02  0.47000000000E+01 0.  1.
        3    1    6    6  502    0  0.19321392467E+02 -0.11095089462E+02 -0.11960917704E+02  0.25287957003E+02  0.00000000000E+00 0. -1.
       -4    1    6    6    0  502  0.27162417849E+02 -0.13135332731E+03 -0.32544569777E+03  0.35200340302E+03  0.00000000000E+00 0.  1.
</event>
<event>
12   0  0.1523332E-01  0.1776184E+03  0.7957747E-01  0.1175665E+00
        2   -1    0    0  502    0  0.00000000000E+00  0.00000000000E+00  0.11739181357E+04  0.11739181357E+04  0.00000000000E+00 0.  1.
       -2   -1    0    0    0  501  0.00000000000E+00  0.00000000000E+00 -0.27851017536E+02  0.27851017536E+02  0.00000000000E+00 0. -1.
        6    2    1    2  502    0 -0.40571045593E+02 -0.26517029998E+01  0.46077187531E+03  0.49385103616E+03  0.17298868049E+03 0.  0.
       24    2    3    3    0    0 -0.23396705382E+02  0.69270299967E+02  0.28226310618E+03  0.30057609437E+03  0.72991418073E+02 0.  0.
       -6    2    1    2    0  501  0.40571045593E+02  0.26517029998E+01  0.68529524288E+03  0.70791811709E+03  0.17281622993E+03 0.  0.
      -24    2    5    5    0    0 -0.41778239515E+02  0.60085172893E+01  0.25844135413E+03  0.27315495708E+03  0.77718552991E+02 0.  0.
        5    1    3    3  502    0 -0.17174340211E+02 -0.71922002966E+02  0.17850876912E+03  0.19327494180E+03  0.47000000000E+01 0. -1.
      -13    1    4    4    0    0 -0.36282983185E+02  0.48992668498E+02  0.26244022803E+03  0.26942830164E+03  0.00000000000E+00 0.  1.
       14    1    4    4    0    0  0.12886277803E+02  0.20277631468E+02  0.19822878153E+02  0.31147792728E+02  0.00000000000E+00 0. -1.
       -5    1    5    5    0  501  0.82349285108E+02 -0.33568142896E+01  0.42685388875E+03  0.43476316001E+03  0.47000000000E+01 0.  1.
        3    1    6    6  503    0 -0.30641161240E+02 -0.29077280519E+02  0.75193333354E+02  0.86246196353E+02  0.00000000000E+00 0. -1.
       -4    1    6    6    0  503 -0.11137078275E+02  0.35085797808E+02  0.18324802077E+03  0.18690876073E+03  0.00000000000E+00 0.  1.
</event>
<event>
12   0  0.1523332E-01  0.2060327E+03  0.7957747E-01  0.1151159E+00
       21   -1    0    0  501  503  0.00000000000E+00  0.00000000000E+00  0.21957641475E+03  0.21957641475E+03  0.00000000000E+00 0.  1.
       21   -1    0    0  503  504  0.00000000000E+00  0.00000000000E+00 -0.23949033394E+03  0.23949033394E+03  0.00000000000E+00 0.  1.
        6    2    1    2  501    0 -0.24055642472E+02 -0.10618973067E+03  0.92401078204E+02  0.22440924776E+03  0.17310868953E+03 0.  0.
       24    2    3    3    0    0  0.14349859393E+02 -0.12829906589E+03  0.44848666407E+02  0.15923926122E+03  0.81726193248E+02 0.  0.
       -6    2    1    2    0  504  0.24055642472E+02  0.10618973067E+03 -0.11231499740E+03  0.23465750094E+03  0.17491298200E+03 0.  0.
      -24    2    5    5    0    0  0.38988330405E+02  0.12289222200E+03 -0.13450880784E+03  0.20277312220E+03  0.80010821544E+02 0.  0.
        5    1    3    3  501    0 -0.38405501865E+02  0.22109335223E+02  0.47552411796E+02  0.65169986536E+02  0.47000000000E+01 0. -1.
      -11    1    4    4    0    0 -0.31246433489E+02 -0.49915819157E+02  0.33769295574E+02  0.67884415969E+02  0.00000000000E+00 0.  1.
       12    1    4    4    0    0  0.45596292882E+02 -0.78383246735E+02  0.11079370833E+02  0.91354845253E+02  0.00000000000E+00 0. -1.
       -5    1    5    5    0  504 -0.14932687934E+02 -0.16702491332E+02  0.22193810443E+02  0.31884378739E+02  0.47000000000E+01 0.  1.
        3    1    6    6  502    0  0.28634106272E+02  0.20011915632E+02 -0.24082481863E+01  0.35016974007E+02  0.00000000000E+00 0. -1.
       -4    1    6    6    0  502  0.10354224134E+02  0.10288030637E+03 -0.13210055965E+03  0.16775614819E+03  0.00000000000E+00 0.  1.
</event>
<event>
12   0  0.1523332E-01  0.1905649E+03  0.7957747E-01  0.1163918E+00
       21   -1    0    0  504  503  0.00000000000E+00  0.00000000000E+00  0.28200338081E+03  0.28200338081E+03  0.00000000000E+00 0. -1.
       21   -1    0    0  501  504  0.00000000000E+00  0.00000000000E+00 -0.16014761226E+03  0.16014761226E+03  0.00000000000E+00 0. -1.
        6    2    1    2  501    0 -0.78871879505E+02 -0.17742673033E+02  0.15917819588E+03  0.24829954710E+03  0.17256706298E+03 0.  0.
       24    2    3    3    0    0 -0.13515395485E+02  0.30496302396E+01  0.66967212215E+01  0.81037836024E+02  0.79563299534E+02 0.  0.
       -6    2    1    2    0  503  0.78871879505E+02  0.17742673033E+02 -0.37322427335E+02  0.19385144597E+03  0.17219129972E+03 0.  0.
      -24    2    5    5    0    0  0.49307084003E+02  0.18992773849E+02  0.44861891203E+02  0.10637578021E+03  0.80692647388E+02 0.  0.
        5    1    3    3  501    0 -0.65356484020E+02 -0.20792303273E+02  0.15248147466E+03  0.16726171108E+03  0.47000000000E+01 0. -1.
      -13    1    4    4    0    0  0.30277241941E+02  0.10066766537E+02 -0.10319616881E+02  0.33534246087E+02  0.00000000000E+00 0.  1.
       14    1    4    4    0    0 -0.43792637426E+02 -0.70171362973E+01  0.17016338103E+02  0.47503589937E+02  0.00000000000E+00 0. -1.
       -5    1    5    5    0  503  0.29564795502E+02 -0.12501008157E+01 -0.82184318538E+02  0.87475665752E+02  0.47000000000E+01 0.  1.
        1    1    6    6  502    0  0.39942431753E+02 -0.69216212095E+01 -0.12765008074E+02  0.42500025007E+02  0.00000000000E+00 0. -1.
       -2    1    6    6    0  502  0.93646522504E+01  0.25914395058E+02  0.57626899277E+02  0.63875755207E+02  0.00000000000E+00 0.  1.
</event>
<event>
12   0  0.1523332E-01  0.2070180E+03  0.7957747E-01  0.1150388E+00
       21   -1    0    0  501  503  0.00000000000E+00  0.00000000000E+00  0.17909503779E+03  0.17909503779E+03  0.00000000000E+00 0.  1.
       21   -1    0    0  503  504  0.00000000000E+00  0.00000000000E+00 -0.24223308730E+03  0.24223308730E+03  0.00000000000E+00 0.  1.
        6    2    1    2  501    0 -0.10996219777E+03 -0.11589737315E+02 -0.30078669021E+00  0.20701825020E+03  0.17501559500E+03 0.  0.
       24    2    3    3    0    0  0.83583279735E+01  0.30229101014E+02  0.49938273317E+01  0.81325430242E+02  0.74868064606E+02 0.  0.
       -6    2    1    2    0  504  0.10996219777E+03  0.11589737315E+02 -0.62837262817E+02  0.21430987490E+03  0.17249404027E+03 0.  0.
      -24    2    5    5    0    0  0.88460788654E+02  0.16739927969E+02 -0.10926706159E+03  0.16267024601E+03  0.80104818014E+02 0.  0.
        5    1    3    3  501    0 -0.11832052574E+03 -0.41818838329E+02 -0.52946140219E+01  0.12569281996E+03  0.47000000000E+01 0. -1.
        2    1    4    4  502    0 -0.16090971055E+02  0.13912636892E+02  0.33950723274E+02  0.40064103954E+02  0.00000000000E+00 0. -1.
       -1    1    4    4    0  502  0.24449299028E+02  0.16316464122E+02 -0.28956895942E+02  0.41261326288E+02  0.00000000000E+00 0.  1.
       -5    1    5    5    0  504  0.21501409116E+02 -0.51501906541E+01  0.46429798774E+02  0.51639628891E+02  0.47000000000E+01 0.  1.
       11    1    6    6    0    0  0.90572538347E+02  0.19774305340E+01 -0.54089311160E+02  0.10551278840E+03  0.00000000000E+00 0. -1.
      -12    1    6    6    0    0 -0.21117496931E+01  0.14762497435E+02 -0.55177750432E+02  0.57157457606E+02  0.00000000000E+00 0.  1.
</event>
<event>
12   0  0.1523332E-01  0.2112774E+03  0.7957747E-01  0.1147109E+00
        1   -1    0    0  502    0  0.00000000000E+00  0.00000000000E+00  0.92234253652E+03  0.92234253652E+03  0.00000000000E+00 0. -1.
       -1   -1    0    0    0  501  0.00000000000E+00  0.00000000000E+00 -0.58249483431E+02  0.58249483431E+02  0.00000000000E+00 0.  1.
        6    2    1    2  502    0  0.12812763867E+02  0.11800388135E+03  0.63299332046E+03  0.66719182299E+03  0.17428511696E+03 0.  0.
       24    2    3    3    0    0 -0.53162432869E+02  0.65853768583E+02  0.26522620134E+03  0.28990267029E+03  0.80843411957E+02 0.  0.
       -6    2    1    2    0  501 -0.12812763867E+02 -0.11800388135E+03  0.23109973263E+03  0.31340019695E+03  0.17528124286E+03 0.  0.
      -24    2    5    5    0    0  0.46775976119E+02 -0.28614259235E+02  0.15103049494E+03  0.17933120240E+03  0.79641082250E+02 0.  0.
        5    1    3    3  502    0  0.65975196736E+02  0.52150112767E+02  0.36776711912E+03  0.37728915271E+03  0.47000000000E+01 0. -1.
        2    1    4    4  503    0 -0.68982361279E+02  0.33105061794E+02  0.14051956313E+03  0.16000080908E+03  0.00000000000E+00 0. -1.
       -1    1    4    4    0  503  0.15819928410E+02  0.32748706790E+02  0.12470663821E+03  0.12990186121E+03  0.00000000000E+00 0.  1.
       -5    1    5    5    0  501 -0.59588739986E+02 -0.89389622115E+02  0.80069237693E+02  0.13406899455E+03  0.47000000000E+01 0.  1.
       13    1    6    6    0    0  0.98566528445E+01 -0.51596718972E+02  0.93054370084E+02  0.10685733857E+03  0.00000000000E+00 0. -1.
      -14    1    6    6    0    0  0.36919323275E+02  0.22982459737E+02  0.57976124852E+02  0.72473863837E+02  0.00000000000E+00 0.  1.
</event>
<event>
12   0  0.1523332E-01  0.1835654E+03  0.7957747E-01  0.1170137E+00
       21   -1    0    0  504  503  0.00000000000E+00  0.00000000000E+00  0.17017185247E+03  0.17017185247E+03  0.00000000000E+00 0. -1.
       21   -1    0    0  501  504  0.00000000000E+00  0.00000000000E+00 -0.22362796199E+03  0.22362796199E+03  0.00000000000E+00 0. -1.
        6    2    1    2  501    0  0.22742626025E+02  0.55680336973E+02 -0.94244093261E+02  0.20575746794E+03  0.17273291388E+03 0.  0.
       24    2    3    3    0    0  0.20194621186E+02 -0.15917063598E+02 -0.99541683692E+02  0.13376556172E+03  0.85577468251E+02 0.  0.
       -6    2    1    2    0  503 -0.22742626025E+02 -0.55680336973E+02  0.40787983742E+02  0.18804234651E+03  0.17343222739E+03 0.  0.
      -24    2    5    5    0    0  0.31346026718E+02 -0.65433528677E+02  0.67069133011E+02  0.12694000686E+03  0.79695524793E+02 0.  0.
        5    1    3    3  501    0  0.25480048383E+01  0.71597400570E+02  0.52975904316E+01  0.71991906222E+02  0.47000000000E+01 0. -1.
        2    1    4    4  502    0 -0.32258917611E+02 -0.11016847033E+02 -0.55341083054E+02  0.64997262693E+02  0.00000000000E+00 0. -1.
       -1    1    4    4    0  502  0.52453538797E+02 -0.49002165649E+01 -0.44200600638E+02  0.68768299030E+02  0.00000000000E+00 0.  1.
       -5    1    5    5    0  503 -0.54088652743E+02  0.97531917039E+01 -0.26281149269E+02  0.61102339651E+02  0.47000000000E+01 0.  1.
       13    1    6    6    0    0 -0.15559042695E+02 -0.54366262084E+02  0.21154164461E+02  0.60376095738E+02  0.00000000000E+00 0. -1.
      -14    1    6    6    0    0  0.46905069413E+02 -0.11067266593E+02  0.45914968550E+02  0.66563911119E+02  0.00000000000E+00 0.  1.
</event>
<event>
12   0  0.1523332E-01  0.1778076E+03  0.7957747E-01  0.1175485E+00
       21   -1    0    0  501  503  0.00000000000E+00  0.00000000000E+00  0.33935786080E+03  0.33935786080E+03  0.00000000000E+00 0. -1.
       21   -1    0    0  503  504  0.00000000000E+00  0.00000000000E+00 -0.10614324912E+03  0.10614324912E+03  0.00000000000E+00 0. -1.
        6    2    1    2  501    0  0.43488223191E+02 -0.77780208859E+01  0.20938060129E+03  0.27469217938E+03  0.17223191937E+03 0.  0.
       24    2    3    3    0    0 -0.28105010750E+02 -0.18876523835E+02  0.17050329720E+03  0.19233744249E+03  0.82317086001E+02 0.  0.
       -6    2    1    2    0  504 -0.43488223192E+02  0.77780208859E+01  0.23834010392E+02  0.17080893054E+03  0.16326636989E+03 0.  0.
      -24    2    5    5    0    0 -0.66788843143E+02 -0.27703769861E+02 -0.18627720708E+02  0.11058464165E+03  0.81570353420E+02 0.  0.
        5    1    3    3  501    0  0.71593233941E+02  0.11098502949E+02  0.38877304090E+02  0.82354736884E+02  0.47000000000E+01 0. -1.
        4    1    4    4  502    0  0.10268463630E+01 -0.27295719984E+02  0.15662404289E+03  0.15898805475E+03  0.00000000000E+00 0. -1.
       -3    1    4    4    0  502 -0.29131857113E+02  0.84191961494E+01  0.13879254314E+02  0.33349387745E+02  0.00000000000E+00 0.  1.
       -5    1    5    5    0  504  0.23300619952E+02  0.35481790747E+02  0.42461731100E+02  0.60224288894E+02  0.47000000000E+01 0.  1.
       13    1    6    6    0    0 -0.32980393376E+02  0.19242537463E+02 -0.33560106019E+02  0.50835640167E+02  0.00000000000E+00 0. -1.
      -14    1    6    6    0    0 -0.33808449768E+02 -0.46946307324E+02  0.14932385311E+02  0.59749001483E+02  0.00000000000E+00 0.  1.
</event>
<event>
12   0  0.1523332E-01  0.2247083E+03  0.7957747E-01  0.1137298E+00
       21   -1    0    0  501  503  0.00000000000E+00  0.00000000000E+00  0.10498575645E+04  0.10498575645E+04  0.00000000000E+00 0. -1.
       21   -1    0    0  503  504  0.00000000000E+00  0.00000000000E+00 -0.48431513695E+02  0.48431513695E+02  0.00000000000E+00 0. -1.
        6    2    1    2  501    0  0.13395962370E+03 -0.50677122143E+02  0.55089717490E+03  0.59483095825E+03  0.17269284896E+03 0.  0.
       24    2    3    3    0    0  0.10860267016E+03 -0.48923237395E+02  0.55061259708E+03  0.56898096426E+03  0.79856637154E+02 0.  0.
       -6    2    1    2    0  504 -0.13395962370E+03  0.50677122143E+02  0.45052887595E+03  0.50345811999E+03  0.17314866166E+03 0.  0.
      -24    2    5    5    0    0 -0.18824781532E+02  0.93790793437E+01  0.28842663592E+03  0.30033060723E+03  0.81032152880E+02 0.  0.
        5    1    3    3  501    0  0.25356953542E+02 -0.17538847485E+01  0.28457781888E+00  0.25849993988E+02  0.47000000000E+01 0. -1.
      -11    1    4    4    0    0 -0.11965667939E+02 -0.75407055045E+01  0.33002374264E+02  0.35905377811E+02  0.00000000000E+00 0.  1.
       12    1    4    4    0    0  0.12056833810E+03 -0.41382531890E+02  0.51761022282E+03  0.53307558645E+03  0.00000000000E+00 0. -1.
       -5    1    5    5    0  504 -0.11513484217E+03  0.41298042800E+02  0.16210224003E+03  0.20312751277E+03  0.47000000000E+01 0.  1.
        1    1    6    6  502    0 -0.15711038634E+02  0.31978751344E+02  0.53375135402E+02  0.64174623892E+02  0.00000000000E+00 0. -1.
       -2    1    6    6    0  502 -0.31137428979E+01 -0.22599672001E+02  0.23505150052E+03  0.23615598333E+03  0.00000000000E+00 0.  1.
</event>
<event>
12   0  0.1523332E-01  0.2472708E+03  0.7957747E-01  0.1122395E+00
        2   -1    0    0  502    0  0.00000000000E+00  0.00000000000E+00  0.49354280559E+03  0.49354280559E+03  0.00000000000E+00 0.  1.
       -2   -1    0    0    0  501  0.00000000000E+00  0.00000000000E+00 -0.13808368030E+03  0.13808368030E+03  0.00000000000E+00 0. -1.
        6    2    1    2  502    0 -0.99276879468E+02 -0.14669198512E+03  0.27820460366E+03  0.37140848160E+03  0.17079818913E+03 0.  0.
       24    2    3    3    0    0 -0.70820096927E+02 -0.14130559513E+03  0.12896974823E+03  0.21931662203E+03  0.80522216789E+02 0.  0.
       -6    2    1    2    0  501  0.99276879468E+02  0.14669198512E+03  0.77254521622E+02  0.26021800430E+03  0.17427194655E+03 0.  0.
      -24    2    5    5    0    0  0.13009291264E+02  0.10067825511E+03 -0.81098340223E+01  0.13033912480E+03  0.81345960780E+02 0.  0.
        5    1    3    3  502    0 -0.28456782541E+02 -0.53863899848E+01  0.14923485544E+03  0.15209185957E+03  0.47000000000E+01 0. -1.
        4    1    4    4  503    0 -0.78651864008E+02 -0.72751718370E+02  0.90936677424E+02  0.14052902739E+03  0.00000000000E+00 0. -1.
       -3    1    4    4    0  503  0.78317670811E+01 -0.68553876762E+02  0.38033070802E+02  0.78787594641E+02  0.00000000000E+00 0.  1.
       -5    1    5    5    0  501  0.86267588204E+02  0.46013730006E+02  0.85364355645E+02  0.12987887949E+03  0.47000000000E+01 0.  1.
       11    1    6    6    0    0  0.39958562921E+02  0.48306184625E+02  0.18990820258E+02  0.65504392813E+02  0.00000000000E+00 0. -1.
      -12    1    6    6    0    0 -0.26949271657E+02  0.52372070487E+02 -0.27100654280E+02  0.64834731991E+02  0.00000000000E+00 0.  1.
</event>
<event>
12   0  0.1523332E-01  0.2200012E+03  0.7957747E-01  0.1140649E+00
        2   -1    0    0  502    0  0.00000000000E+00  0.00000000000E+00  0.71036966502E+03  0.71036966502E+03  0.00000000000E+00 0.  1.
       -2   -1    0    0    0  501  0.00000000000E+00  0.00000000000E+00 -0.72440091748E+02  0.72440091748E+02  0.00000000000E+00 0. -1.
        6    2    1    2  502    0 -0.11661721049E+03 -0.77582131602E+02  0.22040523555E+03  0.30975654325E+03  0.16658957741E+03 0.  0.
       24    2    3    3    0    0 -0.21111558086E+02  0.15723221603E+02  0.78902980101E+02  0.11514874054E+03  0.79628101806E+02 0.  0.
       -6    2    1    2    0  501  0.11661721049E+03  0.77582131602E+02  0.41752433773E+03  0.47305321352E+03  0.17272582118E+03 0.  0.
      -24    2    5    5    0    0  0.54960081358E+02  0.10746103018E+03  0.21672893768E+03  0.26083815084E+03  0.80601643594E+02 0.  0.
        5    1    3    3  502    0 -0.95505652403E+02 -0.93305353205E+02  0.14150225545E+03  0.19460780271E+03  0.47000000000E+01 0. -1.
      -13    1    4    4    0    0 -0.22182523970E+02  0.19032498192E+02 -0.62794316320E+01  0.29895344433E+02  0.00000000000E+00 0.  1.
       14    1    4    4    0    0  0.10709658849E+01 -0.33092765898E+01  0.85182411733E+02  0.85253396109E+02  0.00000000000E+00 0. -1.
       -5    1    5    5    0  501  0.61657129131E+02 -0.29878898582E+02  0.20079540004E+03  0.21221506269E+03  0.47000000000E+01 0.  1.
        3    1    6    6  503    0  0.42819879631E+02  0.89891746909E+02  0.21777408855E+03  0.23945693120E+03  0.00000000000E+00 0. -1.
       -4    1    6    6    0  503  0.12140201727E+02  0.17569283275E+02 -0.10451508691E+01  0.21381219636E+02  0.00000000000E+00 0.  1.
</event>
<event>
12   0  0.1523332E-01  0.2639004E+03  0.7957747E-01  0.1112478E+00
       21   -1    0    0  501  503  0.00000000000E+00  0.00000000000E+00  0.53556722371E+03  0.53556722371E+03  0.00000000000E+00 0. -1.
       21   -1    0    0  503  504  0.00000000000E+00  0.00000000000E+00 -0.23108415837E+03  0.23108415837E+03  0.00000000000E+00 0. -1.
        6    2    1    2  501    0  0.18948618737E+03  0.58274390992E+02  0.40690092531E+03  0.48357391474E+03  0.17021882429E+03 0.  0.
       24    2    3    3    0    0  0.91040085394E+02  0.60670804016E+02  0.12130617628E+03  0.18144177731E+03  0.78972694912E+02 0.  0.
       -6    2    1    2    0  504 -0.18948618737E+03 -0.58274390992E+02 -0.10241785997E+03  0.28307746734E+03  0.17419102912E+03 0.  0.
      -24    2    5    5    0    0 -0.19543676515E+03 -0.89715747994E+02 -0.10040624148E+03  0.25067214501E+03  0.80688700232E+02 0.  0.
        5    1    3    3  501    0  0.98446101972E+02 -0.23964130245E+01  0.28559474903E+03  0.30213213742E+03  0.47000000000E+01 0. -1.
      -13    1    4    4    0    0  0.92188485635E+02  0.20396376421E+02  0.80193108161E+02  0.12387761562E+03  0.00000000000E+00 0.  1.
       14    1    4    4    0    0 -0.11484002406E+01  0.40274427596E+02  0.41113068118E+02  0.57564161692E+02  0.00000000000E+00 0. -1.
       -5    1    5    5    0  504  0.59505777869E+01  0.31441357002E+02 -0.20116184876E+01  0.32405322326E+02  0.47000000000E+01 0.  1.
        3    1    6    6  502    0 -0.50367246760E+02 -0.41865730891E+02 -0.68201345923E+02  0.94556980466E+02  0.00000000000E+00 0. -1.
       -4    1    6    6    0  502 -0.14506951839E+03 -0.47850017104E+02 -0.32204895561E+02  0.15611516455E+03  0.00000000000E+00 0.  1.
</event>
<event>
12   0  0.1523332E-01  0.2130692E+03  0.7957747E-01  0.1145754E+00
       21   -1    0    0  501  503  0.00000000000E+00  0.00000000000E+00  0.17827522466E+03  0.17827522466E+03  0.00000000000E+00 0. -1.
       21   -1    0    0  503  504  0.00000000000E+00  0.00000000000E+00 -0.30662120501E+03  0.30662120501E+03  0.00000000000E+00 0. -1.
        6    2    1    2  501    0  0.87653233841E+02  0.88494666505E+02 -0.16403659977E+03  0.26889869739E+03  0.17287020562E+03 0.  0.
       24    2    3    3    0    0 -0.20912852372E+02  0.53727095900E+02 -0.72163577654E+02  0.12241278942E+03  0.80332813002E+02 0.  0.
       -6    2    1    2    0  504 -0.87653233841E+02 -0.88494666505E+02  0.35690619423E+02  0.21599773228E+03  0.17282015112E+03 0.  0.
      -24    2    5    5    0    0 -0.37324344571E-01 -0.49157188375E+02 -0.29252021622E+02  0.99964886037E+02  0.81980894782E+02 0.  0.
        5    1    3    3  501    0  0.10856608621E+03  0.34767570605E+02 -0.91873022114E+02  0.14648590797E+03  0.47000000000E+01 0. -1.
      -13    1    4    4    0    0 -0.37753553918E+02  0.66493279542E+02 -0.47861577619E+02  0.90207636428E+02  0.00000000000E+00 0.  1.
       14    1    4    4    0    0  0.16840701546E+02 -0.12766183642E+02 -0.24302000035E+02  0.32205152989E+02  0.00000000000E+00 0. -1.
       -5    1    5    5    0  504 -0.87615909496E+02 -0.39337478130E+02  0.64942641045E+02  0.11603284625E+03  0.47000000000E+01 0.  1.
        1    1    6    6  502    0  0.27461560189E+02 -0.57463841407E+02 -0.79088248352E+01  0.64177720959E+02  0.00000000000E+00 0. -1.
       -2    1    6    6    0  502 -0.27498884534E+02  0.83066530312E+01 -0.21343196787E+02  0.35787165077E+02  0.00000000000E+00 0.  1.
</event>
<event>
12   0  0.1523332E-01  0.1813324E+03  0.7957747E-01  0.1172185E+00
        1   -1    0    0  502    0  0.00000000000E+00  0.00000000000E+00  0.16478700161E+04  0.16478700161E+04  0.00000000000E+00 0. -1.
       -1   -1    0    0    0  501  0.00000000000E+00  0.00000000000E+00 -0.20349621874E+02  0.20349621874E+02  0.00000000000E+00 0.  1.
        6    2    1    2  502    0  0.47738272303E+02 -0.22645606793E+02  0.69531906592E+03  0.71845212884E+03  0.17295401659E+03 0.  0.
       24    2    3    3    0    0  0.68960183801E+02 -0.68646074324E+02  0.33698475822E+03  0.35652398871E+03  0.63897079634E+02 0.  0.
       -6    2    1    2    0  501 -0.47738272303E+02  0.22645606793E+02  0.93220132830E+03  0.94976750913E+03  0.17397482220E+03 0.  0.
      -24    2    5    5    0    0 -0.98761596171E+02  0.19990621285E+02  0.60771251536E+03  0.62124732977E+03  0.80500096864E+02 0.  0.
        5    1    3    3  502    0 -0.21221911498E+02  0.46000467531E+02  0.35833430771E+03  0.36192814013E+03  0.47000000000E+01 0. -1.
      -11    1    4    4    0    0  0.46100580317E+01 -0.47548222842E+02  0.11786082428E+03  0.12717413271E+03  0.00000000000E+00 0.  1.
       12    1    4    4    0    0  0.64350125769E+02 -0.21097851482E+02  0.21912393394E+03  0.22934985600E+03  0.00000000000E+00 0. -1.
       -5    1    5    5    0  501  0.51023323868E+02  0.26549855086E+01  0.32448881293E+03  0.32852017936E+03  0.47000000000E+01 0.  1.
        1    1    6    6  503    0 -0.65341444170E+02 -0.14494339596E+01  0.52964619165E+03  0.53366346466E+03  0.00000000000E+00 0. -1.
       -2    1    6    6    0  503 -0.33420152001E+02  0.21440055244E+02  0.78066323715E+02  0.87583865106E+02  0.00000000000E+00 0.  1.
</event>
<event>
12   0  0.1523332E-01  0.2414846E+03  0.7957747E-01  0.1126047E+00
       21   -1    0    0  501  503  0.00000000000E+00  0.00000000000E+00  0.70354524399E+03  0.70354524399E+03  0.00000000000E+00 0. -1.
       21   -1    0    0  503  504  0.00000000000E+00  0.00000000000E+00 -0.83060972460E+02  0.83060972460E+02  0.00000000000E+00 0. -1.
        6    2    1    2  501    0 -0.13089624395E+03  0.76584632351E+02  0.23052689655E+03  0.33385244574E+03  0.18792491293E+03 0.  0.
       24    2    3    3    0    0 -0.13731150391E+02  0.92681785188E+02  0.11936266649E+03  0.17147525053E+03  0.79861490071E+02 0.  0.
       -6    2    1    2    0  504  0.13089624395E+03 -0.76584632351E+02  0.38995737497E+03  0.45275377071E+03  0.17297453569E+03 0.  0.
      -24    2    5    5    0    0  0.12104838498E+03 -0.91027334407E+00  0.19975465544E+03  0.24775925015E+03  0.82638874404E+02 0.  0.
        5    1    3    3  501    0 -0.11716509356E+03 -0.16097152837E+02  0.11116423006E+03  0.16237719521E+03  0.47000000000E+01 0. -1.
        2    1    4    4  502    0 -0.39345281053E+02  0.62486160420E+02  0.10697702894E+03  0.12998713823E+03  0.00000000000E+00 0. -1.
       -1    1    4    4    0  502  0.25614130662E+02  0.30195624768E+02  0.12385637554E+02  0.41488112302E+02  0.00000000000E+00 0.  1.
       -5    1    5    5    0  504  0.98478589719E+01 -0.75674359007E+02  0.19020271954E+03  0.20499452056E+03  0.47000000000E+01 0.  1.
       11    1    6    6    0    0  0.32329976744E+02 -0.10300200833E+02  0.60075688830E+01  0.34458851075E+02  0.00000000000E+00 0. -1.
      -12    1    6    6    0    0  0.88718408237E+02  0.93899274890E+01  0.19374708655E+03  0.21330039908E+03  0.00000000000E+00 0.  1.
</event>
<event>
12   0  0.1523332E-01  0.1778166E+03  0.7957747E-01  0.1175477E+00
       21   -1    0    0  504  503  0.00000000000E+00  0.00000000000E+00  0.10400437655E+03  0.10400437655E+03  0.00000000000E+00 0. -1.
       21   -1    0    0  501  504  0.00000000000E+00  0.00000000000E+00 -0.40832083470E+03  0.40832083470E+03  0.00000000000E+00 0. -1.
        6    2    1    2  501    0 -0.40162326899E+00 -0.27596052336E+02 -0.28320921687E+03  0.33326026171E+03  0.17347402719E+03 0.  0.
       24    2    3    3    0    0 -0.15819680026E+02  0.26508061510E+02 -0.25730573130E+03  0.27114704111E+03  0.79759256134E+02 0.  0.
       -6    2    1    2    0  503  0.40162326899E+00  0.27596052336E+02 -0.21107241272E+02  0.17906494953E+03  0.17566171214E+03 0.  0.
      -24    2    5    5    0    0 -0.66640379007E+02 -0.26024551179E+01 -0.20849760528E+02  0.10538499149E+03  0.78889612939E+02 0.  0.
        5    1    3    3  501    0  0.15418056757E+02 -0.54104113846E+02 -0.25903485570E+02  0.62113220605E+02  0.47000000000E+01 0. -1.
        2    1    4    4  502    0 -0.18140089648E+02 -0.11267505268E+02 -0.20748593139E+03  0.20858195332E+03  0.00000000000E+00 0. -1.
       -1    1    4    4    0  502  0.23204096225E+01  0.37775566778E+02 -0.49819799918E+02  0.62565087789E+02  0.00000000000E+00 0.  1.
       -5    1    5    5    0  503  0.67042002276E+02  0.30198507454E+02 -0.25748074379E+00  0.73679958048E+02  0.47000000000E+01 0.  1.
       13    1    6    6    0    0 -0.68540338596E+02 -0.13719346944E+00  0.14367759283E+02  0.70030203082E+02  0.00000000000E+00 0. -1.
      -14    1    6    6    0    0  0.18999595896E+01 -0.24652616484E+01 -0.35217519811E+02  0.35354788404E+02  0.00000000000E+00 0.  1.
</event>
<event>
12   0  0.1523332E-01  0.2204944E+03  0.7957747E-01  0.1140294E+00
       -1   -1    0    0    0  501  0.00000000000E+00  0.00000000000E+00  0.11908850687E+03  0.11908850687E+03  0.00000000000E+00 0. -1.
        1   -1    0    0  502    0  0.00000000000E+00  0.00000000000E+00 -0.45501655273E+03  0.45501655273E+03  0.00000000000E+00 0.  1.
        6    2    1    2  502    0 -0.11713386184E+03 -0.74666416056E+02 -0.74581080980E+02  0.23084562135E+03  0.16861775702E+03 0.  0.
       24    2    3    3    0    0 -0.32912779104E+02 -0.98029808681E+02 -0.46322023869E+02  0.13886897649E+03  0.80285542388E+02 0.  0.
       -6    2    1    2    0  501  0.11713386184E+03  0.74666416056E+02 -0.26134696488E+03  0.34325943825E+03  0.17386601343E+03 0.  0.
      -24    2    5    5    0    0  0.11391119192E+03 -0.32764704074E+01 -0.19712061212E+03  0.24210315550E+03  0.82285522894E+02 0.  0.
        5    1    3    3  502    0 -0.84221082734E+02  0.23363392625E+02 -0.28259057111E+02  0.91976644866E+02  0.47000000000E+01 0. -1.
        4    1    4    4  503    0  0.25013496554E+02 -0.43772919761E+02 -0.26968334565E+02  0.57175471869E+02  0.00000000000E+00 0. -1.
       -3    1    4    4    0  503 -0.57926275658E+02 -0.54256888921E+02 -0.19353689304E+02  0.81693504617E+02  0.00000000000E+00 0.  1.
       -5    1    5    5    0  501  0.32226699138E+01  0.77942886463E+02 -0.64226352757E+02  0.10115628275E+03  0.47000000000E+01 0.  1.
       11    1    6    6    0    0  0.65912679586E+02  0.42767840339E+01 -0.39045525538E+02  0.76728907697E+02  0.00000000000E+00 0. -1.
      -12    1    6    6    0    0  0.47998512338E+02 -0.75532544413E+01 -0.15807508658E+03  0.16537424781E+03  0.00000000000E+00 0.  1.
</event>
<event>
12   0  0.1523332E-01  0.4138940E+03  0.7957747E-01  0.1048430E+00
       21   -1    0    0  504  503  0.00000000000E+00  0.00000000000E+00  0.36843835267E+03  0.36843835267E+03  0.00000000000E+00 0. -1.
       21   -1    0    0  501  504  0.00000000000E+00  0.00000000000E+00 -0.14431472770E+04  0.14431472770E+04  0.00000000000E+00 0.  1.
        6    2    1    2  501    0  0.25455306644E+03  0.27491923814E+03 -0.12835871542E+04  0.13486675832E+04  0.17587045343E+03 0.  0.
       24    2    3    3    0    0  0.72542049579E+02  0.17838245356E+03 -0.70550163077E+03  0.73494751391E+03  0.73024985396E+02 0.  0.
       -6    2    1    2    0  503 -0.25455306644E+03 -0.27491923814E+03  0.20887822990E+03  0.46291804645E+03  0.17402629593E+03 0.  0.
      -24    2    5    5    0    0 -0.17885702794E+03 -0.23620282659E+03  0.21980939774E+03  0.37706683098E+03  0.77984690545E+02 0.  0.
        5    1    3    3  501    0  0.18201101686E+03  0.96536784580E+02 -0.57808552345E+03  0.61372006930E+03  0.47000000000E+01 0. -1.
      -11    1    4    4    0    0  0.70785611265E+02  0.11278784228E+03 -0.37359916930E+03  0.39662077534E+03  0.00000000000E+00 0.  1.
       12    1    4    4    0    0  0.17564383134E+01  0.65594611278E+02 -0.33190246147E+03  0.33832673857E+03  0.00000000000E+00 0. -1.
       -5    1    5    5    0  503 -0.75696038498E+02 -0.38716411551E+02 -0.10931167842E+02  0.85851215473E+02  0.47000000000E+01 0.  1.
        3    1    6    6  502    0 -0.16933536280E+03 -0.19012926509E+03  0.15896901317E+03  0.30015787460E+03  0.00000000000E+00 0. -1.
       -4    1    6    6    0  502 -0.95216651369E+01 -0.46073561497E+02  0.60840384571E+02  0.76908956376E+02  0.00000000000E+00 0.  1.
</event>
<event>
12   0  0.1523332E-01  0.2194594E+03  0.7957747E-01  0.1141041E+00
        2   -1    0    0  502    0  0.00000000000E+00  0.00000000000E+00  0.80935788503E+03  0.80935788503E+03  0.00000000000E+00 0.  1.
       -2   -1    0    0    0  501  0.00000000000E+00  0.00000000000E+00 -0.59759179412E+02  0.59759179412E+02  0.00000000000E+00 0. -1.
        6    2    1    2  502    0  0.10479494927E+03  0.83926191374E+02  0.40245806703E+03  0.45824609837E+03  0.17318026436E+03 0.  0.
       24    2    3    3    0    0  0.84327887909E+02  0.28250065147E+02  0.11826762431E+03  0.16789281465E+03  0.79319022886E+02 0.  0.
       -6    2    1    2    0  501 -0.10479494927E+03 -0.83926191374E+02  0.34714063859E+03  0.41087096608E+03  0.17401936907E+03 0.  0.
      -24    2    5    5    0    0 -0.18973282713E+02  0.19883985846E+02  0.10255225857E+03  0.13160858589E+03  0.77772075918E+02 0.  0.
        5    1    3    3  502    0  0.20467061358E+02  0.55676126226E+02  0.28419044272E+03  0.29035328372E+03  0.47000000000E+01 0. -1.
        4    1    4    4  503    0  0.60466149272E+01  0.24141828416E+02 -0.12982469308E+01  0.24921373887E+02  0.00000000000E+00 0. -1.
       -3    1    4    4    0  503  0.78281272982E+02  0.41082367317E+01  0.11956587124E+03  0.14297144076E+03  0.00000000000E+00 0.  1.
       -5    1    5    5    0  501 -0.85821666554E+02 -0.10381017722E+03  0.24458838002E+03  0.27926238018E+03  0.47000000000E+01 0.  1.
       13    1    6    6    0    0  0.10746542267E+02 -0.25496522830E+02  0.42182336143E+02  0.50447104274E+02  0.00000000000E+00 0. -1.
      -14    1    6    6    0    0 -0.29719824980E+02  0.45380508677E+02  0.60369922426E+02  0.81161481617E+02  0.00000000000E+00 0.  1.
</event>
<event>
12   0  0.1523332E-01  0.2104135E+03  0.7957747E-01  0.1147767E+00
       21   -1    0    0  504  503  0.00000000000E+00  0.00000000000E+00  0.15013800855E+03  0.15013800855E+03  0.00000000000E+00 0. -1.
       21   -1    0    0  501  504  0.00000000000E+00  0.00000000000E+00 -0.57762215024E+03  0.57762215024E+03  0.00000000000E+00 0.  1.
        6    2    1    2  501    0 -0.71805826534E+01 -0.11681266509E+03 -0.46881667372E+03  0.51387052732E+03  0.17486304868E+03 0.  0.
       24    2    3    3    0    0 -0.35699627323E+02 -0.14181377063E+03 -0.41443243827E+03  0.44740154016E+03  0.83834857427E+02 0.  0.
       -6    2    1    2    0  503  0.71805826534E+01  0.11681266509E+03  0.41332532039E+02  0.21388963147E+03  0.17419425006E+03 0.  0.
      -24    2    5    5    0    0  0.56527421619E+02  0.11915373066E+03  0.51999812700E+02  0.16313067186E+03  0.80713534534E+02 0.  0.
        5    1    3    3  501    0  0.28519044669E+02  0.25001105545E+02 -0.54384235458E+02  0.66468987157E+02  0.47000000000E+01 0. -1.
      -13    1    4    4    0    0 -0.55149781694E+02 -0.11095673823E+03 -0.36834142148E+03  0.38862359547E+03  0.00000000000E+00 0.  1.
       14    1    4    4    0    0  0.19450154372E+02 -0.30857032398E+02 -0.46091016791E+02  0.58777944692E+02  0.00000000000E+00 0. -1.
       -5    1    5    5    0  503 -0.49346838966E+02 -0.23410655717E+01 -0.10667280661E+02  0.50758959609E+02  0.47000000000E+01 0.  1.
        1    1    6    6  502    0  0.32746002998E+02  0.29111431765E+02 -0.17236792764E+02  0.47083789105E+02  0.00000000000E+00 0. -1.
       -2    1    6    6    0  502  0.23781418621E+02  0.90042298892E+02  0.69236605464E+02  0.11604688276E+03  0.00000000000E+00 0.  1.
</event>
<event>
12   0  0.1523332E-01  0.1858021E+03  0.7957747E-01  0.1168117E+00
       21   -1    0    0  501  503  0.00000000000E+00  0.00000000000E+00  0.31476872024E+03  0.31476872024E+03  0.00000000000E+00 0. -1.
       21   -1    0    0  503  504  0.00000000000E+00  0.00000000000E+00 -0.10990859608E+03  0.10990859608E+03  0.00000000000E+00 0. -1.
        6    2    1    2  501    0 -0.65252304266E+02 -0.21029445816E+02  0.86837541953E+02  0.20455971993E+03  0.17205760525E+03 0.  0.
       24    2    3    3    0    0 -0.47241453679E+02  0.42380504933E+02  0.53458803076E+01  0.99639781358E+02  0.76626662780E+02 0.  0.
       -6    2    1    2    0  504  0.65252304266E+02  0.21029445816E+02  0.11802258221E+03  0.22011759638E+03  0.17269141705E+03 0.  0.
      -24    2    5    5    0    0  0.39803799487E+01  0.65093018348E+02  0.33213586457E+02  0.10649320246E+03  0.77360942227E+02 0.  0.
        5    1    3    3  501    0 -0.18010850587E+02 -0.63409950748E+02  0.81491661646E+02  0.10491993858E+03  0.47000000000E+01 0. -1.
        2    1    4    4  502    0 -0.82359437658E+01  0.55309517481E+02 -0.78789274104E+01  0.56471683088E+02  0.00000000000E+00 0. -1.
       -1    1    4    4    0  502 -0.39005509913E+02 -0.12929012548E+02  0.13224807718E+02  0.43168098270E+02  0.00000000000E+00 0.  1.
       -5    1    5    5    0  504  0.61271924317E+02 -0.44063572532E+02  0.84808995756E+02  0.11362439393E+03  0.47000000000E+01 0.  1.
       11    1    6    6    0    0 -0.33818250842E+02  0.37918125902E+02  0.27989375088E+01  0.50885090283E+02  0.00000000000E+00 0. -1.
      -12    1    6    6    0    0  0.37798630790E+02  0.27174892446E+02  0.30414648948E+02  0.55608112175E+02  0.00000000000E+00 0.  1.
</event>
<event>
12   0  0.1523332E-01  0.1823613E+03  0.7957747E-01  0.1171237E+00
       21   -1    0    0  504  503  0.00000000000E+00  0.00000000000E+00  0.29825191592E+03  0.29825191592E+03  0.00000000000E+00 0.  1.
       21   -1    0    0  501  504  0.00000000000E+00  0.00000000000E+00 -0.27511922858E+03  0.27511922858E+03  0.00000000000E+00 0.  1.
        6    2    1    2  501    0 -0.51363018771E+01  0.59059776266E+02 -0.21060761742E+03  0.27690838285E+03  0.16972991842E+03 0.  0.
       24    2    3    3    0    0 -0.43852575157E+02  0.91488571870E+02 -0.15343307940E+03  0.20047805903E+03  0.79727881995E+02 0.  0.
       -6    2    1    2    0  503  0.51363018771E+01 -0.59059776266E+02  0.23374030477E+03  0.29646276166E+03  0.17245637189E+03 0.  0.
      -24    2    5    5    0    0  0.54439698428E+02 -0.20419427994E+02  0.53710840757E+02  0.10578869594E+03  0.70183758582E+02 0.  0.
        5    1    3    3  501    0  0.38716273280E+02 -0.32428795604E+02 -0.57174538028E+02  0.76430323824E+02  0.47000000000E+01 0. -1.
        4    1    4    4  502    0 -0.88403226375E+00  0.26868802989E+02 -0.10638299504E+03  0.10972718770E+03  0.00000000000E+00 0. -1.
       -3    1    4    4    0  502 -0.42968542893E+02  0.64619768881E+02 -0.47050084358E+02  0.90750871327E+02  0.00000000000E+00 0.  1.
       -5    1    5    5    0  503 -0.49303396551E+02 -0.38640348272E+02  0.18002946401E+03  0.19067406572E+03  0.47000000000E+01 0.  1.
       13    1    6    6    0    0  0.70730682392E+02 -0.10527178369E+02  0.47046102547E+02  0.85597819370E+02  0.00000000000E+00 0. -1.
      -14    1    6    6    0    0 -0.16290983964E+02 -0.98922496248E+01  0.66647382103E+01  0.20190876567E+02  0.00000000000E+00 0.  1.
</event>
<event>
12   0  0.1523332E-01  0.1915092E+03  0.7957747E-01  0.1163101E+00
       21   -1    0    0  504  503  0.00000000000E+00  0.00000000000E+00  0.10476455281E+03  0.10476455281E+03  0.00000000000E+00 0.  1.
       21   -1    0    0  501  504  0.00000000000E+00  0.00000000000E+00 -0.36695335072E+03  0.36695335072E+03  0.00000000000E+00 0.  1.
        6    2    1    2  501    0  0.65485827291E+02 -0.51988388320E+02 -0.18516792265E+03  0.26638866216E+03  0.17229211722E+03 0.  0.
       24    2    3    3    0    0  0.55832263321E+02  0.31106428549E+02 -0.63921671628E+02  0.11900927665E+03  0.77410440515E+02 0.  0.
       -6    2    1    2    0  503 -0.65485827291E+02  0.51988388320E+02 -0.77020875263E+02  0.20532924136E+03  0.17098741485E+03 0.  0.
      -24    2    5    5    0    0 -0.17022936165E+02  0.70947347919E+02 -0.10119507232E+03  0.14775688890E+03  0.79172905856E+02 0.  0.
        5    1    3    3  501    0  0.96535639705E+01 -0.83094816869E+02 -0.12124625102E+03  0.14737938551E+03  0.47000000000E+01 0. -1.
      -11    1    4    4    0    0  0.33006730015E+02  0.37820139085E+02 -0.76955942921E+02  0.91880489210E+02  0.00000000000E+00 0.  1.
       12    1    4    4    0    0  0.22825533306E+02 -0.67137105364E+01  0.13034271293E+02  0.27128787441E+02  0.00000000000E+00 0. -1.
       -5    1    5    5    0  503 -0.48462891126E+02 -0.18958959599E+02  0.24174197057E+02  0.57572352468E+02  0.47000000000E+01 0.  1.
        3    1    6    6  502    0 -0.15979330852E+02 -0.13832711434E+02 -0.31847207726E+02  0.38222082100E+02  0.00000000000E+00 0. -1.
       -4    1    6    6    0  502 -0.10436053128E+01  0.84780059353E+02 -0.69347864595E+02  0.10953480680E+03  0.00000000000E+00 0.  1.
</event>
<event>
12   0  0.1523332E-01  0.1911573E+03  0.7957747E-01  0.1163405E+00
       21   -1    0    0  504  503  0.00000000000E+00  0.00000000000E+00  0.55688524718E+03  0.55688524718E+03  0.00000000000E+00 0. -1.
       21   -1    0    0  501  504  0.00000000000E+00  0.00000000000E+00 -0.81681869060E+02  0.81681869060E+02  0.00000000000E+00 0. -1.
        6    2    1    2  501    0 -0.63228074094E+02 -0.53962481733E+02  0.95822599931E+02  0.21382959054E+03  0.17213769008E+03 0.  0.
       24    2    3    3    0    0 -0.10440104340E+03 -0.57097605986E+02  0.10143390175E+03  0.17189369764E+03  0.71406529049E+02 0.  0.
       -6    2    1    2    0  503  0.63228074094E+02  0.53962481733E+02  0.37938077819E+03  0.42473752570E+03  0.17193734931E+03 0.  0.
      -24    2    5    5    0    0  0.35773781926E+02  0.39579551600E+02  0.38088041901E+03  0.39335368017E+03  0.82528296596E+02 0.  0.
        5    1    3    3  501    0  0.41172969306E+02  0.31351242528E+01 -0.56113018201E+01  0.41935892904E+02  0.47000000000E+01 0. -1.
      -13    1    4    4    0    0  0.72509375512E+01 -0.61009987336E+01  0.26353020977E+02  0.28004999474E+02  0.00000000000E+00 0.  1.
       14    1    4    4    0    0 -0.11165198095E+03 -0.50996607252E+02  0.75080880774E+02  0.14388869816E+03  0.00000000000E+00 0. -1.
       -5    1    5    5    0  503  0.27454292167E+02  0.14382930133E+02 -0.14996408206E+01  0.31383845529E+02  0.47000000000E+01 0.  1.
        3    1    6    6  502    0  0.20856505425E+02  0.84977671745E+01  0.17976937068E+02  0.28816247705E+02  0.00000000000E+00 0. -1.
       -4    1    6    6    0  502  0.14917276502E+02  0.31081784426E+02  0.36290348194E+03  0.36453743246E+03  0.00000000000E+00 0.  1.
</event>
<event>
12   0  0.1523332E-01  0.1992872E+03  0.7957747E-01  0.1156567E+00
       21   -1    0    0  504  503  0.00000000000E+00  0.00000000000E+00  0.53839688752E+03  0.53839688752E+03  0.00000000000E+00 0.  1.
       21   -1    0    0  501  504  0.00000000000E+00  0.00000000000E+00 -0.74848093604E+02  0.74848093604E+02  0.00000000000E+00 0.  1.
        6    2    1    2  501    0 -0.82486816779E+02  0.54870187811E+02  0.27038695691E+03  0.33589359927E+03  0.17291787389E+03 0.  0.
       24    2    3    3    0    0 -0.65054607951E+02  0.76210934413E+02  0.99803396493E+02  0.16303484058E+03  0.81113702622E+02 0.  0.
       -6    2    1    2    0  503  0.82486816779E+02 -0.54870187811E+02  0.19316183701E+03  0.27735138186E+03  0.17261946961E+03 0.  0.
      -24    2    5    5    0    0  0.96850400375E+01  0.13194830091E+02  0.14556931540E+03  0.16680689547E+03  0.79788540817E+02 0.  0.
        5    1    3    3  501    0 -0.17432208828E+02 -0.21340746601E+02  0.17058356042E+03  0.17285875869E+03  0.47000000000E+01 0. -1.
        2    1    4    4  502    0 -0.15530491318E+02  0.32323606861E+02 -0.78126305149E+01  0.36702165013E+02  0.00000000000E+00 0. -1.
       -1    1    4    4    0  502 -0.49524116633E+02  0.43887327551E+02  0.10761602701E+03  0.12633267557E+03  0.00000000000E+00 0.  1.
       -5    1    5    5    0  503  0.72801776742E+02 -0.68065017902E+02  0.47592521602E+02  0.11054448639E+03  0.47000000000E+01 0.  1.
       13    1    6    6    0    0 -0.27945679512E+02  0.28605557982E+02  0.60560334303E+02  0.72572674209E+02  0.00000000000E+00 0. -1.
      -14    1    6    6    0    0  0.37630719549E+02 -0.15410727892E+02  0.85008981102E+02  0.94234221257E+02  0.00000000000E+00 0.  1.
</event>
<event>
12   0  0.1523332E-01  0.1835712E+03  0.7957747E-01  0.1170132E+00
       21   -1    0    0  504  503  0.00000000000E+00  0.00000000000E+00  0.35187259249E+03  0.35187259249E+03  0.00000000000E+00 0.  1.
       21   -1    0    0  501  504  0.00000000000E+00  0.00000000000E+00 -0.14314319425E+03  0.14314319425E+03  0.00000000000E+00 0.  1.
        6    2    1    2  501    0 -0.32588310425E+02 -0.41914091489E+02 -0.39756599157E+02  0.18782700053E+03  0.17572593978E+03 0.  0.
       24    2    3    3    0    0 -0.70219325823E+02  0.21951041714E+02 -0.28457689929E+02  0.11269642148E+03  0.80486280488E+02 0.  0.
       -6    2    1    2    0  503  0.32588310425E+02  0.41914091489E+02  0.24848599740E+03  0.30718878621E+03  0.17262928612E+03 0.  0.
      -24    2    5    5    0    0 -0.43162949112E+01  0.15435658202E+01  0.38296205090E+02  0.89947979663E+02  0.81259010110E+02 0.  0.
        5    1    3    3  501    0  0.37631015399E+02 -0.63865133203E+02 -0.11298909227E+02  0.75130579052E+02  0.47000000000E+01 0. -1.
      -13    1    4    4    0    0 -0.21929529657E+02 -0.99542192527E+01  0.24422166260E+02  0.34299168456E+02  0.00000000000E+00 0.  1.
       14    1    4    4    0    0 -0.48289796166E+02  0.31905260967E+02 -0.52879856189E+02  0.78397253024E+02  0.00000000000E+00 0. -1.
       -5    1    5    5    0  503  0.36904605336E+02  0.40370525669E+02  0.21018979231E+03  0.21724080655E+03  0.47000000000E+01 0.  1.
        1    1    6    6  502    0 -0.30869760952E+02 -0.27985741219E+02  0.18945024449E+02  0.45771801409E+02  0.00000000000E+00 0. -1.
       -2    1    6    6    0  502  0.26553466041E+02  0.29529307039E+02  0.19351180641E+02  0.44176178255E+02  0.00000000000E+00 0.  1.
</event>
<event>
12   0  0.1523332E-01  0.1915322E+03  0.7957747E-01  0.1163082E+00
       21   -1    0    0  501  503  0.00000000000E+00  0.00000000000E+00  0.11521860861E+03  0.11521860861E+03  0.00000000000E+00 0. -1.
       21   -1    0    0  503  504  0.00000000000E+00  0.00000000000E+00 -0.39168114928E+03  0.39168114928E+03  0.00000000000E+00 0. -1.
        6    2    1    2  501    0 -0.77604135305E+02  0.23105181118E+02 -0.28339080401E+02  0.19361739763E+03  0.17357517672E+03 0.  0.
       24    2    3    3    0    0 -0.88383990291E+02 -0.36649811568E+02  0.82690212332E-01  0.12641061620E+03  0.82611734174E+02 0.  0.
       -6    2    1    2    0  504  0.77604135305E+02 -0.23105181118E+02 -0.24812346027E+03  0.31328236027E+03  0.17327531418E+03 0.  0.
      -24    2    5    5    0    0  0.76857148239E+02 -0.67660976774E+02 -0.12567885579E+03  0.18289621038E+03  0.84680694163E+02 0.  0.
        5    1    3    3  501    0  0.10779854986E+02  0.59754992686E+02 -0.28421770614E+02  0.67206781423E+02  0.47000000000E+01 0. -1.
      -13    1    4    4    0    0 -0.12853412628E+02 -0.45666830282E+02 -0.13084408434E+02  0.49212512110E+02  0.00000000000E+00 0.  1.
       14    1    4    4    0    0 -0.75530577664E+02  0.90170187137E+01  0.13167098646E+02  0.77198104092E+02  0.00000000000E+00 0. -1.
       -5    1    5    5    0  504  0.74698706628E+00  0.44555795655E+02 -0.12244460448E+03  0.13038614989E+03  0.47000000000E+01 0.  1.
        3    1    6    6  502    0  0.35176650162E+02 -0.69754594720E+02 -0.11633187710E+03  0.14012924688E+03  0.00000000000E+00 0. -1.
       -4    1    6    6    0  502  0.41680498077E+02  0.20936179467E+01 -0.93469786879E+01  0.42766963495E+02  0.00000000000E+00 0.  1.
</event>
<event>
12   0  0.1523332E-01  0.1911498E+03  0.7957747E-01  0.1163412E+00
       21   -1    0    0  501  503  0.00000000000E+00  0.00000000000E+00  0.10600825186E+04  0.10600825186E+04  0.00000000000E+00 0. -1.
       21   -1    0    0  503  504  0.00000000000E+00  0.00000000000E+00 -0.34434248643E+02  0.34434248643E+02  0.00000000000E+00 0. -1.
        6    2    1    2  501    0 -0.65471001489E+02 -0.56485288560E+02  0.55313679432E+03  0.58480573356E+03  0.16899820386E+03 0.  0.
       24    2    3    3    0    0 -0.34762101418E+02 -0.10133920242E+03  0.41762376452E+03  0.43872089047E+03  0.81168795757E+02 0.  0.
       -6    2    1    2    0  504  0.65471001489E+02  0.56485288560E+02  0.47251147559E+03  0.50971103365E+03  0.17047346830E+03 0.  0.
      -24    2    5    5    0    0  0.81374911884E+02  0.12445864712E+02  0.17345247659E+03  0.20697223517E+03  0.77297921462E+02 0.  0.
        5    1    3    3  501    0 -0.30708900071E+02  0.44853913860E+02  0.13551302980E+03  0.14608484308E+03  0.47000000000E+01 0. -1.
        2    1    4    4  502    0 -0.57994115962E+02 -0.93234206472E+02  0.33947614321E+03  0.35679123665E+03  0.00000000000E+00 0. -1.
       -1    1    4    4    0  502  0.23232014544E+02 -0.81049959477E+01  0.78147621312E+02  0.81929653824E+02  0.00000000000E+00 0.  1.
       -5    1    5    5    0  504 -0.15903910395E+02  0.44039423847E+02  0.29905899901E+03  0.30273879848E+03  0.47000000000E+01 0.  1.
       11    1    6    6    0    0  0.22531920384E+02  0.19639290875E+02  0.13020715364E+03  0.13359375749E+03  0.00000000000E+00 0. -1.
      -12    1    6    6    0    0  0.58842991500E+02 -0.71934261629E+01  0.43245322949E+02  0.73378477673E+02  0.00000000000E+00 0.  1.
</event>
<event>
12   0  0.1523332E-01  0.1834783E+03  0.7957747E-01  0.1170216E+00
       21   -1    0    0  504  503  0.00000000000E+00  0.00000000000E+00  0.16119458422E+03  0.16119458422E+03  0.00000000000E+00 0. -1.
       21   -1    0    0  501  504  0.00000000000E+00  0.00000000000E+00 -0.20874222043E+03  0.20874222043E+03  0.00000000000E+00 0. -1.
        6    2    1    2  501    0  0.14134877759E+02  0.59200163306E+02 -0.29147857051E+02  0.18577916011E+03  0.17308912344E+03 0.  0.
       24    2    3    3    0    0  0.44236464274E+02  0.98009789690E+02 -0.17088542784E+02  0.13498733329E+03  0.79792093641E+02 0.  0.
       -6    2    1    2    0  503 -0.14134877759E+02 -0.59200163306E+02 -0.18399779154E+02  0.18415764454E+03  0.17283238141E+03 0.  0.
      -24    2    5    5    0    0  0.14487342302E+02  0.23610695199E+02 -0.38928039506E+02  0.94044553146E+02  0.81003936336E+02 0.  0.
        5    1    3    3  501    0 -0.30101586515E+02 -0.38809626384E+02 -0.12059314267E+02  0.50791826817E+02  0.47000000000E+01 0. -1.
        4    1    4    4  502    0  0.40393681859E+00  0.54110938695E+02  0.25419366786E+02  0.59785458593E+02  0.00000000000E+00 0. -1.
       -3    1    4    4    0  502  0.43832527456E+02  0.43898850996E+02 -0.42507909570E+02  0.75201874697E+02  0.00000000000E+00 0.  1.
       -5    1    5    5    0  503 -0.28622220060E+02 -0.82810858505E+02  0.20528260352E+02  0.90113091394E+02  0.47000000000E+01 0.  1.
       13    1    6    6    0    0 -0.27144295900E+02  0.92221618109E+01  0.79188618620E+01  0.29741712149E+02  0.00000000000E+00 0. -1.
      -14    1    6    6    0    0  0.41631638202E+02  0.14388533388E+02 -0.46846901368E+02  0.64302840996E+02  0.00000000000E+00 0.  1.
</event>
<event>
12   0  0.1523332E-01  0.3696331E+03  0.7957747E-01  0.1063822E+00
       21   -1    0    0  501  503  0.00000000000E+00  0.00000000000E+00  0.18364449177E+03  0.18364449177E+03  0.00000000000E+00 0. -1.
       21   -1    0    0  503  504  0.00000000000E+00  0.00000000000E+00 -0.89668235986E+03  0.89668235986E+03  0.00000000000E+00 0. -1.
        6    2    1    2  501    0  0.26282220813E+03  0.19281247960E+03 -0.58016372193E+03  0.68753657816E+03  0.17281330011E+03 0.  0.
       24    2    3    3    0    0  0.17120055490E+03  0.66570948333E+02 -0.23567638082E+03  0.30935002402E+03  0.80079708533E+02 0.  0.
       -6    2    1    2    0  504 -0.26282220813E+03 -0.19281247960E+03 -0.13287414616E+03  0.39279027346E+03  0.17428853903E+03 0.  0.
      -24    2    5    5    0    0 -0.80227130226E+02 -0.55156876439E+02 -0.10355074609E+03  0.16219977204E+03  0.78149443961E+02 0.  0.
        5    1    3    3  501    0  0.91621653225E+02  0.12624153126E+03 -0.34448734110E+03  0.37818655415E+03  0.47000000000E+01 0. -1.
        2    1    4    4  502    0  0.63600616682E+02  0.67006539100E+02 -0.99175138807E+02  0.13553827091E+03  0.00000000000E+00 0. -1.
       -1    1    4    4    0  502  0.10759993822E+03 -0.43559076675E+00 -0.13650124202E+03  0.17381175310E+03  0.00000000000E+00 0.  1.
       -5    1    5    5    0  504 -0.18259507790E+03 -0.13765560316E+03 -0.29323400067E+02  0.23059050142E+03  0.47000000000E+01 0.  1.
       11    1    6    6    0    0 -0.76563705548E+02 -0.42231349321E+02 -0.38090138753E+02  0.95374768901E+02  0.00000000000E+00 0. -1.
      -12    1    6    6    0    0 -0.36634246783E+01 -0.12925527118E+02 -0.65460607338E+02  0.66825003141E+02  0.00000000000E+00 0.  1.
</event>
<event>
12   0  0.1523332E-01  0.1823254E+03  0.7957747E-01  0.1171270E+00
       21   -1    0    0  504  503  0.00000000000E+00  0.00000000000E+00  0.44758159649E+03  0.44758159649E+03  0.00000000000E+00 0. -1.
       21   -1    0    0  501  504  0.00000000000E+00  0.00000000000E+00 -0.82237138904E+02  0.82237138904E+02  0.00000000000E+00 0. -1.
        6    2    1    2  501    0 -0.39142940666E+02 -0.14501054373E+02  0.88446605560E+02  0.19828449244E+03  0.17248619518E+03 0.  0.
       24    2    3    3    0    0 -0.82171613292E+02 -0.30939884462E+02  0.93944393217E+02  0.15165813218E+03  0.80406402461E+02 0.  0.
       -6    2    1    2    0  503  0.39142940666E+02  0.14501054373E+02  0.27689785202E+03  0.33153424295E+03  0.17748262847E+03 0.  0.
      -24    2    5    5    0    0  0.11441332601E+02  0.73883305299E+02  0.21495903956E+03  0.24124505586E+03  0.80013382614E+02 0.  0.
        5    1    3    3  501    0  0.43028672626E+02  0.16438830089E+02 -0.54977876573E+01  0.46626360267E+02  0.47000000000E+01 0. -1.
      -13    1    4    4    0    0  0.37022889643E+00 -0.65442032929E+01 -0.12892630901E+02  0.14463180761E+02  0.00000000000E+00 0.  1.
       14    1    4    4    0    0 -0.82541842189E+02 -0.24395681169E+02  0.10683702412E+03  0.13719495142E+03  0.00000000000E+00 0. -1.
       -5    1    5    5    0  503  0.27701608065E+02 -0.59382250927E+02  0.61938812466E+02  0.90289187084E+02  0.47000000000E+01 0.  1.
        3    1    6    6  502    0  0.28768874139E+02 -0.43443619097E+01  0.49788820463E+02  0.57666699600E+02  0.00000000000E+00 0. -1.
       -4    1    6    6    0  502 -0.17327541538E+02  0.78227667209E+02  0.16517021910E+03  0.18357835626E+03  0.00000000000E+00 0.  1.
</event>
<event>
12   0  0.1523332E-01  0.2378681E+03  0.7957747E-01  0.1128386E+00
       21   -1    0    0  504  503  0.00000000000E+00  0.00000000000E+00  0.30315069200E+03  0.30315069200E+03  0.00000000000E+00 0. -1.
       21   -1    0    0  501  504  0.00000000000E+00  0.00000000000E+00 -0.19654056930E+03  0.19654056930E+03  0.00000000000E+00 0. -1.
        6    2    1    2  501    0  0.16888312350E+02  0.16249672493E+03 -0.40493051364E+01  0.23734273601E+03  0.17211849626E+03 0.  0.
       24    2    3    3    0    0  0.99060785812E+01  0.49536627474E+02 -0.60701805212E+02  0.11069230778E+03  0.77563328905E+02 0.  0.
       -6    2    1    2    0  503 -0.16888312350E+02 -0.16249672493E+03  0.11065942783E+03  0.26234852530E+03  0.17288967306E+03 0.  0.
      -24    2    5    5    0    0 -0.56867615518E+02 -0.38018612195E+02  0.63764367803E+02  0.12337233350E+03  0.80470475974E+02 0.  0.
        5    1    3    3  501    0  0.69822337690E+01  0.11296009746E+03  0.56652500075E+02  0.12665042823E+03  0.47000000000E+01 0. -1.
      -11    1    4    4    0    0 -0.28884036941E+02  0.42128396908E+02 -0.22734130024E+02  0.55910017743E+02  0.00000000000E+00 0.  1.
       12    1    4    4    0    0  0.38790115522E+02  0.74082305658E+01 -0.37967675188E+02  0.54782290035E+02  0.00000000000E+00 0. -1.
       -5    1    5    5    0  503  0.39979303168E+02 -0.12447811274E+03  0.46895060030E+02  0.13897619180E+03  0.47000000000E+01 0.  1.
        3    1    6    6  502    0 -0.20782229063E+02 -0.55694083244E+02  0.57501788560E+02  0.82705426913E+02  0.00000000000E+00 0. -1.
       -4    1    6    6    0  502 -0.36085386455E+02  0.17675471049E+02  0.62625792430E+01  0.40666906585E+02  0.00000000000E+00 0.  1.
</event>
<event>
12   0  0.1523332E-01  0.1919715E+03  0.7957747E-01  0.1162704E+00
       21   -1    0    0  501  503  0.00000000000E+00  0.00000000000E+00  0.53405901285E+03  0.53405901285E+03  0.00000000000E+00 0.  1.
       21   -1    0    0  503  504  0.00000000000E+00  0.00000000000E+00 -0.14028039573E+03  0.14028039573E+03  0.00000000000E+00 0. -1.
        6    2    1    2  501    0  0.42516471268E+02 -0.66739458844E+02  0.43784792848E+03  0.47737456890E+03  0.17295625132E+03 0.  0.
       24    2    3    3    0    0  0.10312574640E+02 -0.39805792892E+02  0.42309108025E+03  0.43262674338E+03  0.80430010296E+02 0.  0.
       -6    2    1    2    0  504 -0.42516471268E+02  0.66739458844E+02 -0.44069311359E+02  0.19696483967E+03  0.17490351102E+03 0.  0.
      -24    2    5    5    0    0  0.71598849812E+01  0.72375171571E+02 -0.75365736056E+02  0.13779510224E+03  0.89543657610E+02 0.  0.
        5    1    3    3  501    0  0.32203896628E+02 -0.26933665952E+02  0.14756848227E+02  0.44747825525E+02  0.47000000000E+01 0. -1.
        4    1    4    4  502    0  0.25568051213E+02 -0.59596227069E+02  0.28409812975E+03  0.29140552989E+03  0.00000000000E+00 0. -1.
       -3    1    4    4    0  502 -0.15255476572E+02  0.19790434177E+02  0.13899295050E+03  0.14122121349E+03  0.00000000000E+00 0.  1.
       -5    1    5    5    0  504 -0.49676356250E+02 -0.56357127263E+01  0.31296424697E+02  0.59169737426E+02  0.47000000000E+01 0.  1.
       11    1    6    6    0    0  0.41614103440E+02  0.28668134085E+02 -0.92486498718E+01  0.51372493044E+02  0.00000000000E+00 0. -1.
      -12    1    6    6    0    0 -0.34454218459E+02  0.43707037485E+02 -0.66117086184E+02  0.86422609200E+02  0.00000000000E+00 0.  1.
</event>
<event>
12   0  0.1523332E-01  0.1800398E+03  0.7957747E-01  0.1173386E+00
       21   -1    0    0  501  503  0.00000000000E+00  0.00000000000E+00  0.91277244874E+03  0.91277244874E+03  0.00000000000E+00 0. -1.
       21   -1    0    0  503  504  0.00000000000E+00  0.00000000000E+00 -0.99408179851E+02  0.99408179851E+02  0.00000000000E+00 0. -1.
        6    2    1    2  501    0 -0.29642620681E+02  0.39238490241E+02  0.81265936050E+03  0.83213947745E+03  0.17211196831E+03 0.  0.
       24    2    3    3    0    0  0.45546697662E+02  0.24077900004E+02  0.54243662240E+03  0.55120230426E+03  0.83260098283E+02 0.  0.
       -6    2    1    2    0  504  0.29642620681E+02 -0.39238490241E+02  0.70490837924E+00  0.18004115114E+03  0.17319346157E+03 0.  0.
      -24    2    5    5    0    0  0.18405352093E+02 -0.85135418417E+02 -0.31244227515E+02  0.12280793084E+03  0.80739021976E+02 0.  0.
        5    1    3    3  501    0 -0.75189318343E+02  0.15160590237E+02  0.27022273811E+03  0.28093717319E+03  0.47000000000E+01 0. -1.
      -13    1    4    4    0    0 -0.57646813254E+01  0.28282670407E+02  0.66563065436E+02  0.72551930894E+02  0.00000000000E+00 0.  1.
       14    1    4    4    0    0  0.51311378987E+02 -0.42047704032E+01  0.47587355696E+03  0.47865037337E+03  0.00000000000E+00 0. -1.
       -5    1    5    5    0  504  0.11237268588E+02  0.45896928175E+02  0.31949135894E+02  0.57233220298E+02  0.47000000000E+01 0.  1.
        3    1    6    6  502    0  0.42960049284E+02 -0.25654470101E+02  0.25922415277E+01  0.50104265156E+02  0.00000000000E+00 0. -1.
       -4    1    6    6    0  502 -0.24554697192E+02 -0.59480948315E+02 -0.33836469043E+02  0.72703665684E+02  0.00000000000E+00 0.  1.
</event>
<event>
12   0  0.1523332E-01  0.1999196E+03  0.7957747E-01  0.1156050E+00
       -1   -1    0    0    0  501  0.00000000000E+00  0.00000000000E+00  0.89414941825E+02  0.89414941825E+02  0.00000000000E+00 0. -1.
        1   -1    0    0  502    0  0.00000000000E+00  0.00000000000E+00 -0.52020357805E+03  0.52020357805E+03  0.00000000000E+00 0.  1.
        6    2    1    2  502    0  0.98079318286E+02  0.10478632624E+02 -0.32979708248E+03  0.38569117495E+03  0.17396037597E+03 0.  0.
       24    2    3    3    0    0  0.25777019722E+02 -0.18251081616E+02 -0.27999057636E+03  0.29319362412E+03  0.81056903775E+02 0.  0.
       -6    2    1    2    0  501 -0.98079318286E+02 -0.10478632624E+02 -0.10099155374E+03  0.22392734492E+03  0.17382407042E+03 0.  0.
      -24    2    5    5    0    0 -0.31132247368E+01  0.41444260887E+02 -0.51055862729E+02  0.10463690511E+03  0.81331801051E+02 0.  0.
        5    1    3    3  502    0  0.72302298563E+02  0.28729714241E+02 -0.49806506122E+02  0.92497550832E+02  0.47000000000E+01 0. -1.
        4    1    4    4  503    0 -0.95254893894E+01 -0.42794365047E+02 -0.15011466355E+03  0.15638575651E+03  0.00000000000E+00 0. -1.
       -3    1    4    4    0  503  0.35302509112E+02  0.24543283431E+02 -0.12987591281E+03  0.13680786761E+03  0.00000000000E+00 0.  1.
       -5    1    5    5    0  501 -0.94966093549E+02 -0.51922893511E+02 -0.49935691015E+02  0.11929043982E+03  0.47000000000E+01 0.  1.
       11    1    6    6    0    0 -0.28312995384E+02  0.46046700011E+02 -0.81501402679E+01  0.54665794386E+02  0.00000000000E+00 0. -1.
      -12    1    6    6    0    0  0.25199770647E+02 -0.46024391242E+01 -0.42905722461E+02  0.49971110719E+02  0.00000000000E+00 0.  1.
</event>
<event>
12   0  0.1523332E-01  0.1762726E+03  0.7957747E-01  0.1176949E+00
       21   -1    0    0  504  503  0.00000000000E+00  0.00000000000E+00  0.36184386829E+03  0.36184386829E+03  0.00000000000E+00 0. -1.
       21   -1    0    0  501  504  0.00000000000E+00  0.00000000000E+00 -0.86080706698E+02  0.86080706698E+02  0.00000000000E+00 0. -1.
        6    2    1    2  501    0  0.40016864385E+01  0.25386595405E+02  0.11509054589E+03  0.20941313901E+03  0.17305356488E+03 0.  0.
       24    2    3    3    0    0 -0.13031104736E+02  0.50233014329E+02  0.14376694658E+03  0.16755759619E+03  0.68654553323E+02 0.  0.
       -6    2    1    2    0  503 -0.40016864385E+01 -0.25386595405E+02  0.16067261570E+03  0.23851143597E+03  0.17438899889E+03 0.  0.
      -24    2    5    5    0    0 -0.23725408268E+02 -0.63355807378E+02  0.16477096380E+03  0.19527288006E+03  0.80032330026E+02 0.  0.
        5    1    3    3  501    0  0.17032791175E+02 -0.24846418924E+02 -0.28676400689E+02  0.41855542823E+02  0.47000000000E+01 0. -1.
      -11    1    4    4    0    0 -0.27864029499E+02  0.13004470161E+02  0.18157205949E+02  0.35710005768E+02  0.00000000000E+00 0.  1.
       12    1    4    4    0    0  0.14832924763E+02  0.37228544168E+02  0.12560974063E+03  0.13184759042E+03  0.00000000000E+00 0. -1.
       -5    1    5    5    0  503  0.19723721830E+02  0.37969211973E+02 -0.40983480994E+01  0.43238555917E+02  0.47000000000E+01 0.  1.
        1    1    6    6  502    0 -0.44414778066E+02 -0.22930881269E+02  0.45283712801E+02  0.67447108696E+02  0.00000000000E+00 0. -1.
       -2    1    6    6    0  502  0.20689369798E+02 -0.40424926108E+02  0.11948725100E+03  0.12782577136E+03  0.00000000000E+00 0.  1.
</event>
<event>
12   0  0.1523332E-01  0.1995465E+03  0.7957747E-01  0.1156355E+00
       21   -1    0    0  504  503  0.00000000000E+00  0.00000000000E+00  0.66029360823E+02  0.66029360823E+02  0.00000000000E+00 0. -1.
       21   -1    0    0  501  504  0.00000000000E+00  0.00000000000E+00 -0.60833555391E+03  0.60833555391E+03  0.00000000000E+00 0. -1.
        6    2    1    2  501    0  0.71643944840E+02  0.60272828620E+02 -0.21473346329E+03  0.29079912293E+03  0.17230206307E+03 0.  0.
       24    2    3    3    0    0  0.40396160242E+02 -0.11254483797E+02 -0.17853758634E+03  0.20463177429E+03  0.90774336370E+02 0.  0.
       -6    2    1    2    0  503 -0.71643944840E+02 -0.60272828620E+02 -0.32757272979E+03  0.38356579180E+03  0.17621905298E+03 0.  0.
      -24    2    5    5    0    0 -0.53057146639E+02 -0.76633628992E+02 -0.33562077532E+03  0.35710816732E+03  0.78722070863E+02 0.  0.
        5    1    3    3  501    0  0.31247784598E+02  0.71527312417E+02 -0.36195876950E+02  0.86167348642E+02  0.47000000000E+01 0. -1.
      -11    1    4    4    0    0  0.50976875378E+02 -0.15338258393E+02 -0.42490443007E+02  0.68112713503E+02  0.00000000000E+00 0.  1.
       12    1    4    4    0    0 -0.10580715136E+02  0.40837745959E+01 -0.13604714334E+03  0.13651906079E+03  0.00000000000E+00 0. -1.
       -5    1    5    5    0  503 -0.18586798201E+02  0.16360800371E+02  0.80480455279E+01  0.26457624477E+02  0.47000000000E+01 0.  1.
        1    1    6    6  502    0  0.23675057204E+01 -0.63642658288E+02 -0.15016383204E+03  0.16311091162E+03  0.00000000000E+00 0. -1.
       -2    1    6    6    0  502 -0.55424652359E+02 -0.12990970704E+02 -0.18545694327E+03  0.19399725570E+03  0.00000000000E+00 0.  1.
</event>
<event>
12   0  0.1523332E-01  0.2370042E+03  0.7957747E-01  0.1128952E+00
       21   -1    0    0  501  503  0.00000000000E+00  0.00000000000E+00  0.31814702361E+03  0.31814702361E+03  0.00000000000E+00 0. -1.
       21   -1    0    0  503  504  0.00000000000E+00  0.00000000000E+00 -0.17355442110E+03  0.17355442110E+03  0.00000000000E+00 0.  1.
        6    2    1    2  501    0 -0.92489913523E+00 -0.15447933424E+03  0.74300462842E+02  0.24449304337E+03  0.17433177947E+03 0.  0.
       24    2    3    3    0    0 -0.28840008014E+02 -0.21567726972E+02 -0.30934626544E+01  0.88106796039E+02  0.80351260650E+02 0.  0.
       -6    2    1    2    0  504  0.92489913523E+00  0.15447933424E+03  0.70292139675E+02  0.24720840135E+03  0.17973950220E+03 0.  0.
      -24    2    5    5    0    0 -0.27118469288E+02  0.65494565810E+01  0.12580726151E+02  0.85893874827E+02  0.80256939291E+02 0.  0.
        5    1    3    3  501    0  0.27915108879E+02 -0.13291160726E+03  0.77393925496E+02  0.15638624733E+03  0.47000000000E+01 0. -1.
      -11    1    4    4    0    0 -0.55611518975E+02 -0.10640369643E+02  0.79060289630E+01  0.57169605586E+02  0.00000000000E+00 0.  1.
       12    1    4    4    0    0  0.26771510961E+02 -0.10927357328E+02 -0.10999491617E+02  0.30937190454E+02  0.00000000000E+00 0. -1.
       -5    1    5    5    0  504  0.28043368423E+02  0.14792987765E+03  0.57711413524E+02  0.16131452652E+03  0.47000000000E+01 0.  1.
        1    1    6    6  502    0  0.28357250484E+02  0.54256111621E+01  0.92077461105E+01  0.30304347872E+02  0.00000000000E+00 0. -1.
       -2    1    6    6    0  502 -0.55475719772E+02  0.11238454189E+01  0.33729800408E+01  0.55589526955E+02  0.00000000000E+00 0.  1.
</event>
<event>
12   0  0.1523332E-01  0.2292330E+03  0.7957747E-01  0.1134160E+00
        1   -1    0    0  502    0  0.00000000000E+00  0.00000000000E+00  0.20532556512E+03  0.20532556512E+03  0.00000000000E+00 0. -1.
       -1   -1    0    0    0  501  0.00000000000E+00  0.00000000000E+00 -0.29449297225E+03  0.29449297225E+03  0.00000000000E+00 0.  1.
        6    2    1    2  502    0  0.12772828279E+03 -0.78221126888E+02 -0.13507442107E+03  0.26632789461E+03  0.17393213994E+03 0.  0.
       24    2    3    3    0    0  0.15729982662E+03 -0.50957009555E+02 -0.86008965334E+02  0.20270936551E+03  0.79710052514E+02 0.  0.
       -6    2    1    2    0  501 -0.12772828279E+03  0.78221126888E+02  0.45907013936E+02  0.23349064276E+03  0.17313973378E+03 0.  0.
      -24    2    5    5    0    0 -0.24408005763E+01  0.35220019307E+02  0.50282030170E+02  0.10087360306E+03  0.80004962147E+02 0.  0.
        5    1    3    3  502    0 -0.29571543824E+02 -0.27264117332E+02 -0.49065455735E+02  0.63618529098E+02  0.47000000000E+01 0. -1.
      -11    1    4    4    0    0  0.62195745758E+02  0.14119260100E+02 -0.52756041254E+02  0.82769947354E+02  0.00000000000E+00 0.  1.
       12    1    4    4    0    0  0.95104080860E+02 -0.65076269655E+02 -0.33252924080E+02  0.11993941816E+03  0.00000000000E+00 0. -1.
       -5    1    5    5    0  501 -0.12528748222E+03  0.43001107580E+02 -0.43750162341E+01  0.13261703971E+03  0.47000000000E+01 0.  1.
        3    1    6    6  503    0 -0.32030529377E+02  0.44510396933E+02  0.22632775877E+02  0.59324301860E+02  0.00000000000E+00 0. -1.
       -4    1    6    6    0  503  0.29589728801E+02 -0.92903776261E+01  0.27649254293E+02  0.41549301196E+02  0.00000000000E+00 0.  1.
</event>
<event>
12   0  0.1523332E-01  0.1820468E+03  0.7957747E-01  0.1171526E+00
       21   -1    0    0  501  503  0.00000000000E+00  0.00000000000E+00  0.23059137791E+03  0.23059137791E+03  0.00000000000E+00 0.  1.
       21   -1    0    0  503  504  0.00000000000E+00  0.00000000000E+00 -0.47615002189E+03  0.47615002189E+03  0.00000000000E+00 0.  1.
        6    2    1    2  501    0 -0.49178244528E+02  0.62117389514E+01  0.17315269962E+03  0.25124271920E+03  0.17516837937E+03 0.  0.
       24    2    3    3    0    0 -0.87980520386E+02  0.40781159215E+02  0.98549893276E+02  0.16020245260E+03  0.80926321056E+02 0.  0.
       -6    2    1    2    0  504  0.49178244528E+02 -0.62117389514E+01 -0.41871134360E+03  0.45549868059E+03  0.17234492544E+03 0.  0.
      -24    2    5    5    0    0 -0.21495628819E+02 -0.51752284660E+01 -0.10726954890E+03  0.13610244985E+03  0.80797745546E+02 0.  0.
        5    1    3    3  501    0  0.38802275857E+02 -0.34569420263E+02  0.74602806343E+02  0.91040266604E+02  0.47000000000E+01 0. -1.
      -11    1    4    4    0    0 -0.40320307303E+02 -0.23061944326E+02  0.40498708720E+02  0.61625691600E+02  0.00000000000E+00 0.  1.
       12    1    4    4    0    0 -0.47660213083E+02  0.63843103541E+02  0.58051184555E+02  0.98576760999E+02  0.00000000000E+00 0. -1.
       -5    1    5    5    0  504  0.70673873348E+02 -0.10365104854E+01 -0.31144179469E+03  0.31939623074E+03  0.47000000000E+01 0.  1.
        1    1    6    6  502    0 -0.25518477219E+01  0.35055830558E+02 -0.68990056392E+02  0.77427715088E+02  0.00000000000E+00 0. -1.
       -2    1    6    6    0  502 -0.18943781097E+02 -0.40231059024E+02 -0.38279492512E+02  0.58674734762E+02  0.00000000000E+00 0.  1.
</event>
<event>
12   0  0.1523332E-01  0.2038979E+03  0.7957747E-01  0.1152846E+00
       21   -1    0    0  501  503  0.00000000000E+00  0.00000000000E+00  0.61882623454E+03  0.61882623454E+03  0.00000000000E+00 0. -1.
       21   -1    0    0  503  504  0.00000000000E+00  0.00000000000E+00 -0.11645991158E+03  0.11645991158E+03  0.00000000000E+00 0. -1.
        6    2    1    2  501    0 -0.93991530144E+02  0.49053702835E+02  0.49247406713E+03  0.53301504777E+03  0.17416561329E+03 0.  0.
       24    2    3    3    0    0 -0.24377217163E+01  0.72039053323E+02  0.22607192095E+03  0.25034453346E+03  0.79801655980E+02 0.  0.
       -6    2    1    2    0  504  0.93991530144E+02 -0.49053702835E+02  0.98922558262E+01  0.20227109835E+03  0.17197403002E+03 0.  0.
      -24    2    5    5    0    0  0.12357002938E+03 -0.59808250536E+02  0.34198588762E+02  0.16222817471E+03  0.79384244053E+02 0.  0.
        5    1    3    3  501    0 -0.91553808428E+02 -0.22985350488E+02  0.26640214618E+03  0.28267051431E+03  0.47000000000E+01 0. -1.
      -13    1    4    4    0    0 -0.35966525031E+02  0.13148142039E+02  0.62615597466E+02  0.73397395103E+02  0.00000000000E+00 0.  1.
       14    1    4    4    0    0  0.33528803315E+02  0.58890911284E+02  0.16345632349E+03  0.17694713835E+03  0.00000000000E+00 0. -1.
       -5    1    5    5    0  504 -0.29578499232E+02  0.10754547701E+02 -0.24306332936E+02  0.40042923643E+02  0.47000000000E+01 0.  1.
        1    1    6    6  502    0  0.82516956082E+02 -0.61135224011E+02 -0.84163621116E+01  0.10304076284E+03  0.00000000000E+00 0. -1.
       -2    1    6    6    0  502  0.41053073294E+02  0.13269734751E+01  0.42614950874E+02  0.59187411866E+02  0.00000000000E+00 0.  1.
</event>
<event>
12   0  0.1523332E-01  0.2755544E+03  0.7957747E-01  0.1105991E+00
       21   -1    0    0  501  503  0.00000000000E+00  0.00000000000E+00  0.85743612269E+03  0.85743612269E+03  0.00000000000E+00 0.  1.
       21   -1    0    0  503  504  0.00000000000E+00  0.00000000000E+00 -0.28322580368E+03  0.28322580368E+03  0.00000000000E+00 0. -1.
        6    2    1    2  501    0  0.11210410418E+03  0.18253744595E+03  0.76050973170E+03  0.80889138122E+03  0.17332906639E+03 0.  0.
       24    2    3    3    0    0  0.11870746539E+03  0.65904864126E+02  0.40504755865E+03  0.43469596437E+03  0.80387456833E+02 0.  0.
       -6    2    1    2    0  504 -0.11210410418E+03 -0.18253744595E+03 -0.18629941270E+03  0.33177054515E+03  0.17168859633E+03 0.  0.
      -24    2    5    5    0    0 -0.10480059168E+03 -0.20634066658E+03 -0.18443880031E+03  0.30636411909E+03  0.79256972591E+02 0.  0.
        5    1    3    3  501    0 -0.66033612103E+01  0.11663258182E+03  0.35546217305E+03  0.37419541685E+03  0.47000000000E+01 0. -1.
      -11    1    4    4    0    0  0.11537892025E+02  0.44374256195E+02  0.86263806281E+02  0.97691564832E+02  0.00000000000E+00 0.  1.
       12    1    4    4    0    0  0.10716957337E+03  0.21530607932E+02  0.31878375237E+03  0.33700439954E+03  0.00000000000E+00 0. -1.
       -5    1    5    5    0  504 -0.73035125046E+01  0.23803220624E+02 -0.18606123858E+01  0.25406426066E+02  0.47000000000E+01 0.  1.
        3    1    6    6  502    0  0.77110670551E+01 -0.45770171365E+02 -0.52305794667E+02  0.69930431842E+02  0.00000000000E+00 0. -1.
       -4    1    6    6    0  502 -0.11251165873E+03 -0.16057049521E+03 -0.13213300564E+03  0.23643368724E+03  0.00000000000E+00 0.  1.
</event>
<event>
12   0  0.1523332E-01  0.2192116E+03  0.7957747E-01  0.1141220E+00
       21   -1    0    0  504  503  0.00000000000E+00  0.00000000000E+00  0.42281353764E+03  0.42281353764E+03  0.00000000000E+00 0.  1.
       21   -1    0    0  501  504  0.00000000000E+00  0.00000000000E+00 -0.26240751709E+03  0.26240751709E+03  0.00000000000E+00 0. -1.
        6    2    1    2  501    0  0.10259109437E+03  0.85693850007E+02 -0.17822073042E+03  0.28183317080E+03  0.17262369142E+03 0.  0.
       24    2    3    3    0    0  0.88912068696E+02  0.15098158837E+02 -0.49008510191E+02  0.13388468243E+03  0.85964898404E+02 0.  0.
       -6    2    1    2    0  503 -0.10259109437E+03 -0.85693850007E+02  0.33862675096E+03  0.40338788393E+03  0.17373928703E+03 0.  0.
      -24    2    5    5    0    0 -0.71874284840E+01 -0.79993873651E+01  0.21933234376E+03  0.23194828938E+03  0.74683884472E+02 0.  0.
        5    1    3    3  501    0  0.13679025670E+02  0.70595691170E+02 -0.12921222023E+03  0.14794848837E+03  0.47000000000E+01 0. -1.
        2    1    4    4  502    0  0.69417722709E+02 -0.28173927217E+02 -0.42065076457E+02  0.85918921422E+02  0.00000000000E+00 0. -1.
       -1    1    4    4    0  502  0.19494345987E+02  0.43272086054E+02 -0.69434337338E+01  0.47965761006E+02  0.00000000000E+00 0.  1.
       -5    1    5    5    0  503 -0.95403665882E+02 -0.77694462642E+02  0.11929440720E+03  0.17143959455E+03  0.47000000000E+01 0.  1.
       13    1    6    6    0    0  0.24778111422E+02 -0.25488691203E+02  0.73672474577E+02  0.81800132611E+02  0.00000000000E+00 0. -1.
      -14    1    6    6    0    0 -0.31965539906E+02  0.17489303838E+02  0.14565986919E+03  0.15014815677E+03  0.00000000000E+00 0.  1.
</event>
<event>
12   0  0.1523332E-01  0.1934166E+03  0.7957747E-01  0.1161468E+00
       21   -1    0    0  504  503  0.00000000000E+00  0.00000000000E+00  0.65060050500E+02  0.65060050500E+02  0.00000000000E+00 0. -1.
       21   -1    0    0  501  504  0.00000000000E+00  0.00000000000E+00 -0.59127655999E+03  0.59127655999E+03  0.00000000000E+00 0. -1.
        6    2    1    2  501    0  0.47283860262E+02  0.64236738161E+02 -0.33291283708E+03  0.38502068032E+03  0.17620398749E+03 0.  0.
       24    2    3    3    0    0  0.95452918124E+02  0.16746938749E+02 -0.21761474680E+03  0.25126239532E+03  0.79905530100E+02 0.  0.
       -6    2    1    2    0  503 -0.47283860262E+02 -0.64236738161E+02 -0.19330367241E+03  0.27131593018E+03  0.17286961048E+03 0.  0.
      -24    2    5    5    0    0 -0.24736452332E+02  0.33420570625E+02 -0.10189171840E+03  0.13558247483E+03  0.79195066687E+02 0.  0.
        5    1    3    3  501    0 -0.48169057861E+02  0.47489799412E+02 -0.11529809028E+03  0.13375828500E+03  0.47000000000E+01 0. -1.
      -13    1    4    4    0    0  0.33072750629E+02  0.23186764952E+02 -0.16354737820E+03  0.16846120568E+03  0.00000000000E+00 0.  1.
       14    1    4    4    0    0  0.62380167495E+02 -0.64398262030E+01 -0.54067368598E+02  0.82801189637E+02  0.00000000000E+00 0. -1.
       -5    1    5    5    0  503 -0.22547407930E+02 -0.97657308786E+02 -0.91411954017E+02  0.13573345535E+03  0.47000000000E+01 0.  1.
        1    1    6    6  502    0  0.12330027816E+02 -0.19082487124E+02 -0.41908586775E+02  0.47670751475E+02  0.00000000000E+00 0. -1.
       -2    1    6    6    0  502 -0.37066480148E+02  0.52503057749E+02 -0.59983131622E+02  0.87911723352E+02  0.00000000000E+00 0.  1.
</event>
<event>
12   0  0.1523332E-01  0.2555281E+03  0.7957747E-01  0.1117368E+00
       21   -1    0    0  501  503  0.00000000000E+00  0.00000000000E+00  0.21365937584E+03  0.21365937584E+03  0.00000000000E+00 0. -1.
       21   -1    0    0  503  504  0.00000000000E+00  0.00000000000E+00 -0.30240795162E+03  0.30240795162E+03  0.00000000000E+00 0.  1.
        6    2    1    2  501    0 -0.75782554466E+02 -0.16679450660E+03 -0.58126645793E+02  0.25871089075E+03  0.17317394448E+03 0.  0.
       24    2    3    3    0    0 -0.10123248566E+02 -0.88476316780E+02 -0.91651317096E+02  0.15104995589E+03  0.80533138870E+02 0.  0.
       -6    2    1    2    0  504  0.75782554466E+02  0.16679450660E+03 -0.30621929990E+02  0.25735643672E+03  0.17813261894E+03 0.  0.
      -24    2    5    5    0    0  0.61970855878E+02  0.55523187189E+02  0.44173868714E+02  0.12249142626E+03  0.78291810148E+02 0.  0.
        5    1    3    3  501    0 -0.65659305900E+02 -0.78318189822E+02  0.33524671303E+02  0.10766093486E+03  0.47000000000E+01 0. -1.
        2    1    4    4  502    0 -0.37729728757E+02 -0.66824885842E+02 -0.86425258971E+02  0.11557864503E+03  0.00000000000E+00 0. -1.
       -1    1    4    4    0  502  0.27606480191E+02 -0.21651430939E+02 -0.52260581244E+01  0.35471310854E+02  0.00000000000E+00 0.  1.
       -5    1    5    5    0  504  0.13811698588E+02  0.11127131941E+03 -0.74795798703E+02  0.13486501046E+03  0.47000000000E+01 0.  1.
       13    1    6    6    0    0  0.31846484486E+02 -0.14231792984E+02  0.28184695336E+02  0.44845507655E+02  0.00000000000E+00 0. -1.
      -14    1    6    6    0    0  0.30124371392E+02  0.69754980173E+02  0.15989173377E+02  0.77645918605E+02  0.00000000000E+00 0.  1.
</event>
<event>
12   0  0.1523332E-01  0.1891685E+03  0.7957747E-01  0.1165135E+00
       -1   -1    0    0    0  501  0.00000000000E+00  0.00000000000E+00  0.10307345111E+03  0.10307345111E+03  0.00000000000E+00 0. -1.
        1   -1    0    0  502    0  0.00000000000E+00  0.00000000000E+00 -0.40113586733E+03  0.40113586733E+03  0.00000000000E+00 0.  1.
        6    2    1    2  502    0  0.34959366897E+02 -0.50923237841E+02 -0.53265375429E+02  0.19157498317E+03  0.17334485995E+03 0.  0.
       24    2    3    3    0    0  0.21227825126E+02 -0.11688936339E+02 -0.10058133216E+03  0.12841823044E+03  0.76074869288E+02 0.  0.
       -6    2    1    2    0  501 -0.34959366897E+02  0.50923237841E+02 -0.24479704079E+03  0.31263433526E+03  0.18438899891E+03 0.  0.
      -24    2    5    5    0    0  0.23046166291E+02  0.26367475406E+02 -0.41490870151E+02  0.99742070564E+02  0.83669700577E+02 0.  0.
        5    1    3    3  502    0  0.13731541771E+02 -0.39234301502E+02  0.47315956736E+02  0.63156752732E+02  0.47000000000E+01 0. -1.
      -13    1    4    4    0    0  0.27022866714E+01 -0.40865089151E+02 -0.33317396639E+02  0.52794950359E+02  0.00000000000E+00 0.  1.
       14    1    4    4    0    0  0.18525538454E+02  0.29176152812E+02 -0.67263935526E+02  0.75623280082E+02  0.00000000000E+00 0. -1.
       -5    1    5    5    0  501 -0.58005533187E+02  0.24555762435E+02 -0.20330617064E+03  0.21289226470E+03  0.47000000000E+01 0.  1.
        3    1    6    6  503    0 -0.71818650754E+01  0.46220847376E+02 -0.29168858183E+01  0.46866343372E+02  0.00000000000E+00 0. -1.
       -4    1    6    6    0  503  0.30228031366E+02 -0.19853371971E+02 -0.38573984332E+02  0.52875727193E+02  0.00000000000E+00 0.  1.
</event>
<event>
12   0  0.1523332E-01  0.2033862E+03  0.7957747E-01  0.1153253E+00
       21   -1    0    0  504  503  0.00000000000E+00  0.00000000000E+00  0.15636329741E+03  0.15636329741E+03  0.00000000000E+00 0. -1.
       21   -1    0    0  501  504  0.00000000000E+00  0.00000000000E+00 -0.38468981603E+03  0.38468981603E+03  0.00000000000E+00 0. -1.
        6    2    1    2  501    0 -0.31522229319E+02 -0.93734655014E+02 -0.26781183405E+03  0.33386954103E+03  0.17310648595E+03 0.  0.
       24    2    3    3    0    0 -0.56554297740E+02 -0.15263048849E+02 -0.79683982255E+02  0.12844662107E+03  0.81961260262E+02 0.  0.
       -6    2    1    2    0  503  0.31522229319E+02  0.93734655014E+02  0.39485315433E+02  0.20718357241E+03  0.17772480427E+03 0.  0.
      -24    2    5    5    0    0 -0.37095001704E+01  0.11900690443E+03 -0.73794263085E+01  0.14316517372E+03  0.79154326101E+02 0.  0.
        5    1    3    3  501    0  0.25032068421E+02 -0.78471606166E+02 -0.18812785180E+03  0.20542291996E+03  0.47000000000E+01 0. -1.
      -13    1    4    4    0    0 -0.43458252653E+02 -0.48896442794E+01  0.32438970061E+01  0.43852607820E+02  0.00000000000E+00 0.  1.
       14    1    4    4    0    0 -0.13096045087E+02 -0.10373404569E+02 -0.82927879261E+02  0.84594013251E+02  0.00000000000E+00 0. -1.
       -5    1    5    5    0  503  0.35231729489E+02 -0.25272249411E+02  0.46864741742E+02  0.64018398696E+02  0.47000000000E+01 0.  1.
        1    1    6    6  502    0  0.19133354765E+02  0.54022627198E+02 -0.36965339989E+02  0.68197990252E+02  0.00000000000E+00 0. -1.
       -2    1    6    6    0  502 -0.22842854936E+02  0.64984277228E+02  0.29585913680E+02  0.74967183465E+02  0.00000000000E+00 0.  1.
</event>
<event>
12   0  0.1523332E-01  0.2407108E+03  0.7957747E-01  0.1126543E+00
        2   -1    0    0  502    0  0.00000000000E+00  0.00000000000E+00  0.92195280515E+03  0.92195280515E+03  0.00000000000E+00 0.  1.
       -2   -1    0    0    0  501  0.00000000000E+00  0.00000000000E+00 -0.65506029521E+02  0.65506029521E+02  0.00000000000E+00 0. -1.
        6    2    1    2  502    0  0.73639655568E+02 -0.15012062261E+03  0.52590957557E+03  0.57794911659E+03  0.17171284020E+03 0.  0.
       24    2    3    3    0    0  0.11742733947E+03 -0.11180955669E+03  0.39986585317E+03  0.43904552056E+03  0.81103092245E+02 0.  0.
       -6    2    1    2    0  501 -0.73639655568E+02  0.15012062261E+03  0.33053720006E+03  0.40950971808E+03  0.17459773302E+03 0.  0.
      -24    2    5    5    0    0 -0.99587975744E+02  0.15589480368E+03  0.22962086236E+03  0.30504511306E+03  0.78139783998E+02 0.  0.
        5    1    3    3  502    0 -0.43787683906E+02 -0.38311065918E+02  0.12604372240E+03  0.13890359603E+03  0.47000000000E+01 0. -1.
      -13    1    4    4    0    0  0.11722824224E+03 -0.64190599572E+02  0.29161571321E+03  0.32078437936E+03  0.00000000000E+00 0.  1.
       14    1    4    4    0    0  0.19909723508E+00 -0.47618957117E+02  0.10825013995E+03  0.11826114119E+03  0.00000000000E+00 0. -1.
       -5    1    5    5    0  501  0.25948320176E+02 -0.57741810748E+01  0.10091633770E+03  0.10446460502E+03  0.47000000000E+01 0.  1.
        1    1    6    6  503    0 -0.88325701984E+02  0.88584255375E+02  0.18564129970E+03  0.22385551610E+03  0.00000000000E+00 0. -1.
       -2    1    6    6    0  503 -0.11262273761E+02  0.67310548306E+02  0.43979562654E+02  0.81189596961E+02  0.00000000000E+00 0.  1.
</event>
<event>
12   0  0.1523332E-01  0.2170516E+03  0.7957747E-01  0.1142796E+00
       21   -1    0    0  504  503  0.00000000000E+00  0.00000000000E+00  0.31829188796E+03  0.31829188796E+03  0.00000000000E+00 0.  1.
       21   -1    0    0  501  504  0.00000000000E+00  0.00000000000E+00 -0.19197653279E+03  0.19197653279E+03  0.00000000000E+00 0.  1.
        6    2    1    2  501    0 -0.12511281240E+03 -0.31464909791E+02 -0.59898671793E+02  0.22516498254E+03  0.17455131654E+03 0.  0.
       24    2    3    3    0    0 -0.11188877791E+03 -0.48294702289E+02 -0.10296538427E+03  0.17684367537E+03  0.76291141488E+02 0.  0.
       -6    2    1    2    0  503  0.12511281240E+03  0.31464909791E+02  0.18621402697E+03  0.28510343821E+03  0.17310416016E+03 0.  0.
      -24    2    5    5    0    0  0.27237093152E+02  0.51120429981E+02  0.38322404249E+02  0.10660969053E+03  0.80881776945E+02 0.  0.
        5    1    3    3  501    0 -0.13224034490E+02  0.16829792498E+02  0.43066712473E+02  0.48321307174E+02  0.47000000000E+01 0. -1.
        4    1    4    4  502    0 -0.19437072861E+02 -0.46437820426E+02 -0.26719936669E+02  0.56993209972E+02  0.00000000000E+00 0. -1.
       -3    1    4    4    0  502 -0.92451705046E+02 -0.18568818634E+01 -0.76245447597E+02  0.11985046540E+03  0.00000000000E+00 0.  1.
       -5    1    5    5    0  503  0.97875719244E+02 -0.19655520190E+02  0.14789162272E+03  0.17849374768E+03  0.47000000000E+01 0.  1.
       13    1    6    6    0    0 -0.10593196294E+01 -0.17432470806E+02  0.26162536252E+02  0.31456183806E+02  0.00000000000E+00 0. -1.
      -14    1    6    6    0    0  0.28296412782E+02  0.68552900787E+02  0.12159867997E+02  0.75153506721E+02  0.00000000000E+00 0.  1.
</event>
<event>
12   0  0.1523332E-01  0.1741906E+03  0.7957747E-01  0.1178961E+00
        2   -1    0    0  502    0  0.00000000000E+00  0.00000000000E+00  0.19410639309E+03  0.19410639309E+03  0.00000000000E+00 0.  1.
       -2   -1    0    0    0  501  0.00000000000E+00  0.00000000000E+00 -0.16958261481E+03  0.16958261481E+03  0.00000000000E+00 0. -1.
        6    2    1    2  502    0  0.28189554732E+01 -0.27185314208E+02 -0.38551904105E+02  0.17900292359E+03  0.17265227924E+03 0.  0.
       24    2    3    3    0    0 -0.50366855859E+02  0.72175232927E+01 -0.56532309273E+02  0.11299026780E+03  0.83558277945E+02 0.  0.
       -6    2    1    2    0  501 -0.28189554732E+01  0.27185314208E+02  0.63075682390E+02  0.18468608431E+03  0.17141592753E+03 0.  0.
      -24    2    5    5    0    0 -0.34697288370E+02  0.52014670886E+02  0.89551974059E+02  0.13614940662E+03  0.81287619329E+02 0.  0.
        5    1    3    3  502    0  0.53185811332E+02 -0.34402837501E+02  0.17980405168E+02  0.66012655795E+02  0.47000000000E+01 0. -1.
      -11    1    4    4    0    0 -0.19261257198E+02 -0.17828122178E+02  0.15606418492E+02  0.30535197189E+02  0.00000000000E+00 0.  1.
       12    1    4    4    0    0 -0.31105598661E+02  0.25045645471E+02 -0.72138727765E+02  0.82455070606E+02  0.00000000000E+00 0. -1.
       -5    1    5    5    0  501  0.31878332897E+02 -0.24829356678E+02 -0.26476291670E+02  0.48536677698E+02  0.47000000000E+01 0.  1.
        1    1    6    6  503    0 -0.18737913718E+01 -0.21523770311E+02  0.24168780376E+02  0.32417799545E+02  0.00000000000E+00 0. -1.
       -2    1    6    6    0  503 -0.32823496999E+02  0.73538441198E+02  0.65383193684E+02  0.10373160707E+03  0.00000000000E+00 0.  1.
</event>
<event>
12   0  0.1523332E-01  0.3188773E+03  0.7957747E-01  0.1084618E+00
       21   -1    0    0  501  503  0.00000000000E+00  0.00000000000E+00  0.10889654023E+03  0.10889654023E+03  0.00000000000E+00 0.  1.
       21   -1    0    0  503  504  0.00000000000E+00  0.00000000000E+00 -0.17308607274E+04  0.17308607274E+04  0.00000000000E+00 0. -1.
        6    2    1    2  501    0 -0.21886329708E+03  0.15413310516E+03 -0.18659020493E+03  0.36945721283E+03  0.17327599551E+03 0.  0.
       24    2    3    3    0    0 -0.47072484432E+02  0.10329958116E+03 -0.70783568148E+02  0.15608102485E+03  0.80401184944E+02 0.  0.
       -6    2    1    2    0  504  0.21886329708E+03 -0.15413310516E+03 -0.14353739822E+04  0.14703000548E+04  0.17270097092E+03 0.  0.
      -24    2    5    5    0    0  0.31779511198E+02 -0.59521169892E+02 -0.56970661620E+03  0.57959592893E+03  0.82541536736E+02 0.  0.
        5    1    3    3  501    0 -0.17179081265E+03  0.50833523999E+02 -0.11580663679E+03  0.21337618798E+03  0.47000000000E+01 0. -1.
      -11    1    4    4    0    0 -0.19162425300E+02  0.78389221394E+02 -0.55577180881E+01  0.80888545571E+02  0.00000000000E+00 0.  1.
       12    1    4    4    0    0 -0.27910059132E+02  0.24910359768E+02 -0.65225850060E+02  0.75192479282E+02  0.00000000000E+00 0. -1.
       -5    1    5    5    0  504  0.18708378588E+03 -0.94611935270E+02 -0.86566736604E+03  0.89070412588E+03  0.47000000000E+01 0.  1.
        3    1    6    6  502    0  0.48320397065E+02 -0.28410579489E+02 -0.47928885469E+03  0.48255551808E+03  0.00000000000E+00 0. -1.
       -4    1    6    6    0  502 -0.16540885867E+02 -0.31110590402E+02 -0.90417761514E+02  0.97040410848E+02  0.00000000000E+00 0.  1.
</event>
<event>
12   0  0.1523332E-01  0.2539953E+03  0.7957747E-01  0.1118286E+00
        4   -1    0    0  502    0  0.00000000000E+00  0.00000000000E+00  0.40839843356E+03  0.40839843356E+03  0.00000000000E+00 0. -1.
       -4   -1    0    0    0  501  0.00000000000E+00  0.00000000000E+00 -0.31046572327E+03  0.31046572327E+03  0.00000000000E+00 0.  1.
        6    2    1    2  502    0  0.18541447620E+03  0.93805613463E+01  0.30091916268E+03  0.39408088137E+03  0.17401401001E+03 0.  0.
       24    2    3    3    0    0  0.13421469858E+03 -0.11487737825E+02  0.10344994065E+03  0.18896363006E+03  0.82823968927E+02 0.  0.
       -6    2    1    2    0  501 -0.18541447620E+03 -0.93805613463E+01 -0.20298645239E+03  0.32478327545E+03  0.17266775393E+03 0.  0.
      -24    2    5    5    0    0 -0.18584740251E+03 -0.53238208594E+02 -0.16906695098E+03  0.26913883976E+03  0.80489237051E+02 0.  0.
        5    1    3    3  502    0  0.51199777621E+02  0.20868299171E+02  0.19746922203E+03  0.20511725132E+03  0.47000000000E+01 0. -1.
        2    1    4    4  503    0  0.11482118413E+03  0.75331873239E+01  0.11190907927E+03  0.16051260156E+03  0.00000000000E+00 0. -1.
       -1    1    4    4    0  503  0.19393514453E+02 -0.19020925149E+02 -0.84591386233E+01  0.28451028498E+02  0.00000000000E+00 0.  1.
       -5    1    5    5    0  501  0.43292631446E+00  0.43857647248E+02 -0.33919501411E+02  0.55644435690E+02  0.47000000000E+01 0.  1.
       11    1    6    6    0    0 -0.40109555965E+02 -0.41634783876E+02 -0.22253184966E+02  0.61947041488E+02  0.00000000000E+00 0. -1.
      -12    1    6    6    0    0 -0.14573784655E+03 -0.11603424719E+02 -0.14681376601E+03  0.20719179827E+03  0.00000000000E+00 0.  1.
</event>
<event>
12   0  0.1523332E-01  0.2040514E+03  0.7957747E-01  0.1152724E+00
       21   -1    0    0  504  503  0.00000000000E+00  0.00000000000E+00  0.18326442682E+03  0.18326442682E+03  0.00000000000E+00 0. -1.
       21   -1    0    0  501  504  0.00000000000E+00  0.00000000000E+00 -0.23313361442E+03  0.23313361442E+03  0.00000000000E+00 0. -1.
        6    2    1    2  501    0 -0.10493300261E+02 -0.10873168498E+03 -0.63551951768E+02  0.21188842683E+03  0.17007400207E+03 0.  0.
       24    2    3    3    0    0 -0.10650679231E+02 -0.13401835535E+02 -0.75598353385E+02  0.11568546037E+03  0.85877637034E+02 0.  0.
       -6    2    1    2    0  503  0.10493300261E+02  0.10873168498E+03  0.13682764171E+02  0.20450961442E+03  0.17234928396E+03 0.  0.
      -24    2    5    5    0    0  0.48664745005E+02  0.72964169259E+01 -0.86554445117E+01  0.93751958396E+02  0.79328543898E+02 0.  0.
        5    1    3    3  501    0  0.15737896987E+00 -0.95329849449E+02  0.12046401617E+02  0.96202966461E+02  0.47000000000E+01 0. -1.
        4    1    4    4  502    0 -0.48414310636E+02 -0.42792995422E+01 -0.39068134085E+02  0.62358455560E+02  0.00000000000E+00 0. -1.
       -3    1    4    4    0  502  0.37763631405E+02 -0.91225359926E+01 -0.36530219300E+02  0.53327004809E+02  0.00000000000E+00 0.  1.
       -5    1    5    5    0  503 -0.38171444744E+02  0.10143526806E+03  0.22338208682E+02  0.11075765602E+03  0.47000000000E+01 0.  1.
       11    1    6    6    0    0  0.22935700148E+02  0.21445761969E+02 -0.39966984251E+02  0.50826438768E+02  0.00000000000E+00 0. -1.
      -12    1    6    6    0    0  0.25729044857E+02 -0.14149345043E+02  0.31311539740E+02  0.42925519628E+02  0.00000000000E+00 0.  1.
</event>
<event>
12   0  0.1523332E-01  0.1984254E+03  0.7957747E-01  0.1157275E+00
       21   -1    0    0  504  503  0.00000000000E+00  0.00000000000E+00  0.86562508623E+03  0.86562508623E+03  0.00000000000E+00 0. -1.
       21   -1    0    0  501  504  0.00000000000E+00  0.00000000000E+00 -0.69365505174E+02  0.69365505174E+02  0.00000000000E+00 0. -1.
        6    2    1    2  501    0 -0.17743271540E+02 -0.95734946793E+02  0.12270062095E+03  0.23329828957E+03  0.17289489817E+03 0.  0.
       24    2    3    3    0    0  0.62507171836E+01  0.17451036752E+02  0.45275306785E+02  0.94001672095E+02  0.80267370726E+02 0.  0.
       -6    2    1    2    0  503  0.17743271540E+02  0.95734946793E+02  0.67355896010E+03  0.70169230183E+03  0.17091053213E+03 0.  0.
      -24    2    5    5    0    0 -0.23052429318E+02  0.26100558920E+02  0.19683190666E+03  0.21815945841E+03  0.87396202095E+02 0.  0.
        5    1    3    3  501    0 -0.23993988724E+02 -0.11318598355E+03  0.77425314165E+02  0.13929661747E+03  0.47000000000E+01 0. -1.
      -13    1    4    4    0    0  0.21086483289E+02 -0.42163818479E+01 -0.16350648787E+02  0.27014095749E+02  0.00000000000E+00 0.  1.
       14    1    4    4    0    0 -0.14835766105E+02  0.21667418600E+02  0.61625955571E+02  0.66987576347E+02  0.00000000000E+00 0. -1.
       -5    1    5    5    0  503  0.40795700859E+02  0.69634387873E+02  0.47672705344E+03  0.48353284342E+03  0.47000000000E+01 0.  1.
        3    1    6    6  502    0  0.25620976378E+02  0.64365574016E+01  0.18472201194E+02  0.32234855649E+02  0.00000000000E+00 0. -1.
       -4    1    6    6    0  502 -0.48673405696E+02  0.19664001519E+02  0.17835970546E+03  0.18592460276E+03  0.00000000000E+00 0.  1.
</event>
<event>
12   0  0.1523332E-01  0.2451258E+03  0.7957747E-01  0.1123736E+00
       21   -1    0    0  501  503  0.00000000000E+00  0.00000000000E+00  0.52602801739E+02  0.52602801739E+02  0.00000000000E+00 0. -1.
       21   -1    0    0  503  504  0.00000000000E+00  0.00000000000E+00 -0.11489975552E+04  0.11489975552E+04  0.00000000000E+00 0. -1.
        6    2    1    2  501    0  0.12188434535E+02 -0.17138842786E+03 -0.47964535037E+03  0.53792386557E+03  0.17256845563E+03 0.  0.
       24    2    3    3    0    0  0.54009359569E+02 -0.17257311939E+03 -0.42110607908E+03  0.46581748896E+03  0.83409296405E+02 0.  0.
       -6    2    1    2    0  504 -0.12188434535E+02  0.17138842786E+03 -0.61674940312E+03  0.66367649140E+03  0.17482593585E+03 0.  0.
      -24    2    5    5    0    0 -0.10000097682E+02  0.12928488671E+03 -0.59814013842E+03  0.61735272073E+03  0.80858968151E+02 0.  0.
        5    1    3    3  501    0 -0.41820925033E+02  0.11846915287E+01 -0.58539271293E+02  0.72106376612E+02  0.47000000000E+01 0. -1.
        4    1    4    4  502    0  0.27922885491E+02 -0.16780188302E+03 -0.38599652747E+03  0.42181806350E+03  0.00000000000E+00 0. -1.
       -3    1    4    4    0  502  0.26086474078E+02 -0.47712363702E+01 -0.35109551611E+02  0.43999425458E+02  0.00000000000E+00 0.  1.
       -5    1    5    5    0  504 -0.21883368535E+01  0.42103541152E+02 -0.18609264705E+02  0.46323770665E+02  0.47000000000E+01 0.  1.
       11    1    6    6    0    0  0.78936487777E+01  0.12345360594E+03 -0.40952949146E+03  0.42780545449E+03  0.00000000000E+00 0. -1.
      -12    1    6    6    0    0 -0.17893746460E+02  0.58312807610E+01 -0.18861064695E+03  0.18954726625E+03  0.00000000000E+00 0.  1.
</event>
<event>
12   0  0.1523332E-01  0.3206060E+03  0.7957747E-01  0.1083842E+00
       21   -1    0    0  504  503  0.00000000000E+00  0.00000000000E+00  0.10135677183E+04  0.10135677183E+04  0.00000000000E+00 0.  1.
       21   -1    0    0  501  504  0.00000000000E+00  0.00000000000E+00 -0.18274699136E+03  0.18274699136E+03  0.00000000000E+00 0. -1.
        6    2    1    2  501    0  0.24228245426E+03 -0.11787780750E+03  0.16266484653E+02  0.32101839113E+03  0.17375915451E+03 0.  0.
       24    2    3    3    0    0  0.12244639226E+03 -0.62799246153E+02 -0.58251013245E+02  0.16946220627E+03  0.79921176885E+02 0.  0.
       -6    2    1    2    0  503 -0.24228245426E+03  0.11787780750E+03  0.81455424227E+03  0.87529631851E+03  0.17334666554E+03 0.  0.
      -24    2    5    5    0    0 -0.12409279501E+03 -0.54169316840E+01  0.33759587778E+03  0.36865861785E+03  0.80683547924E+02 0.  0.
        5    1    3    3  501    0  0.11983606200E+03 -0.55078561346E+02  0.74517497898E+02  0.15155618486E+03  0.47000000000E+01 0. -1.
        4    1    4    4  502    0  0.10264124288E+03 -0.11879161694E+02 -0.47749843813E+02  0.11382612533E+03  0.00000000000E+00 0. -1.
       -3    1    4    4    0  502  0.19805149379E+02 -0.50920084458E+02 -0.10501169432E+02  0.55636080942E+02  0.00000000000E+00 0.  1.
       -5    1    5    5    0  503 -0.11818965926E+03  0.12329473918E+03  0.47695836449E+03  0.50663770065E+03  0.47000000000E+01 0.  1.
       13    1    6    6    0    0 -0.31092317093E+01  0.23460898995E+02  0.49999736564E+02  0.55317761704E+02  0.00000000000E+00 0. -1.
      -14    1    6    6    0    0 -0.12098356330E+03 -0.28877830679E+02  0.28759614121E+03  0.31334085615E+03  0.00000000000E+00 0.  1.
</event>
<event>
12   0  0.1523332E-01  0.1899638E+03  0.7957747E-01  0.1164440E+00
       21   -1    0    0  504  503  0.00000000000E+00  0.00000000000E+00  0.18472528781E+03  0.18472528781E+03  0.00000000000E+00 0.  1.
       21   -1    0    0  501  504  0.00000000000E+00  0.00000000000E+00 -0.34299289785E+03  0.34299289785E+03  0.00000000000E+00 0.  1.
        6    2    1    2  501    0 -0.94299493318E+01  0.73685725266E+02 -0.25317073332E+03  0.31536743851E+03  0.17275037196E+03 0.  0.
       24    2    3    3    0    0  0.20698545475E+02  0.12803808628E+02 -0.44132992182E+02  0.95519306401E+02  0.81140924300E+02 0.  0.
       -6    2    1    2    0  503  0.94299493318E+01 -0.73685725266E+02  0.94903123279E+02  0.21235074716E+03  0.17483628616E+03 0.  0.
      -24    2    5    5    0    0 -0.26611401397E+01 -0.65957844584E+01 -0.16094768131E+02  0.82005526686E+02  0.80095435615E+02 0.  0.
        5    1    3    3  501    0 -0.30128494806E+02  0.60881916638E+02 -0.20903774114E+03  0.21984813211E+03  0.47000000000E+01 0. -1.
      -13    1    4    4    0    0 -0.69901524703E+00 -0.16636806610E+02 -0.55057119898E+02  0.57520069610E+02  0.00000000000E+00 0.  1.
       14    1    4    4    0    0  0.21397560722E+02  0.29440615237E+02  0.10924127716E+02  0.37999236792E+02  0.00000000000E+00 0. -1.
       -5    1    5    5    0  503  0.12091089472E+02 -0.67089940807E+02  0.11099789141E+03  0.13034522047E+03  0.47000000000E+01 0.  1.
        1    1    6    6  502    0  0.36400174958E+02 -0.13792384642E+02 -0.16516104270E+02  0.42284563511E+02  0.00000000000E+00 0. -1.
       -2    1    6    6    0  502 -0.39061315098E+02  0.71966001836E+01  0.42133613901E+00  0.39720963175E+02  0.00000000000E+00 0.  1.
</event>
<event>
12   0  0.1523332E-01  0.2173287E+03  0.7957747E-01  0.1142593E+00
       21   -1    0    0  501  503  0.00000000000E+00  0.00000000000E+00  0.17663725745E+03  0.17663725745E+03  0.00000000000E+00 0.  1.
       21   -1    0    0  503  504  0.00000000000E+00  0.00000000000E+00 -0.35628208365E+03  0.35628208365E+03  0.00000000000E+00 0. -1.
        6    2    1    2  501    0 -0.10376998938E+03  0.79996198926E+02  0.43461698171E+02  0.22163190149E+03  0.17339024774E+03 0.  0.
       24    2    3    3    0    0 -0.11806287703E+03  0.75190055515E+01  0.32404966590E+02  0.14678825440E+03  0.80630834009E+02 0.  0.
       -6    2    1    2    0  504  0.10376998938E+03 -0.79996198926E+02 -0.22310652437E+03  0.31128743961E+03  0.17307728419E+03 0.  0.
      -24    2    5    5    0    0  0.46058937589E+02  0.12176534002E+02 -0.16291636665E+03  0.18690366543E+03  0.78240295971E+02 0.  0.
        5    1    3    3  501    0  0.14292887645E+02  0.72477193375E+02  0.11056731581E+02  0.74843647092E+02  0.47000000000E+01 0. -1.
      -13    1    4    4    0    0 -0.39712613151E+02 -0.26343206038E+02 -0.13954042516E+02  0.49656534819E+02  0.00000000000E+00 0.  1.
       14    1    4    4    0    0 -0.78350263876E+02  0.33862211589E+02  0.46359009106E+02  0.97131719579E+02  0.00000000000E+00 0. -1.
       -5    1    5    5    0  504  0.57711051792E+02 -0.92172732928E+02 -0.60190157717E+02  0.12438377418E+03  0.47000000000E+01 0.  1.
        1    1    6    6  502    0 -0.26683608735E+01 -0.27257517069E+02 -0.66295443276E+02  0.71729897432E+02  0.00000000000E+00 0. -1.
       -2    1    6    6    0  502  0.48727298463E+02  0.39434051071E+02 -0.96620923379E+02  0.11517376799E+03  0.00000000000E+00 0.  1.
</event>
<event>
12   0  0.1523332E-01  0.1722949E+03  0.7957747E-01  0.1180820E+00
       21   -1    0    0  501  503  0.00000000000E+00  0.00000000000E+00  0.91865181050E+03  0.91865181050E+03  0.00000000000E+00 0.  1.
       21   -1    0    0  503  504  0.00000000000E+00  0.00000000000E+00 -0.45047271178E+02  0.45047271178E+02  0.00000000000E+00 0.  1.
        6    2    1    2  501    0 -0.24590618339E+01 -0.64761138843E+01  0.69344481842E+03  0.71441399120E+03  0.17167890841E+03 0.  0.
       24    2    3    3    0    0  0.61765033907E+02 -0.59805627817E+01  0.31715384169E+03  0.33265232574E+03  0.78869030540E+02 0.  0.
       -6    2    1    2    0  504  0.24590618339E+01  0.64761138843E+01  0.18015972090E+03  0.24928509048E+03  0.17215558156E+03 0.  0.
      -24    2    5    5    0    0 -0.29422009342E+02 -0.29820815994E+02  0.18008125556E+03  0.20074679658E+03  0.78198989978E+02 0.  0.
        5    1    3    3  501    0 -0.64224095741E+02 -0.49555110261E+00  0.37629097673E+03  0.38176166546E+03  0.47000000000E+01 0. -1.
        4    1    4    4  502    0  0.40218327573E+02 -0.28735404245E+01  0.48297066503E+02  0.62915639869E+02  0.00000000000E+00 0. -1.
       -3    1    4    4    0  502  0.21546706334E+02 -0.31070223572E+01  0.26885677519E+03  0.26973668587E+03  0.00000000000E+00 0.  1.
       -5    1    5    5    0  504  0.31881071176E+02  0.36296929879E+02  0.78465345976E-01  0.48538293900E+02  0.47000000000E+01 0.  1.
       11    1    6    6    0    0  0.14215749157E+02 -0.29285057935E+02  0.13138030104E+03  0.13535318853E+03  0.00000000000E+00 0. -1.
      -12    1    6    6    0    0 -0.43637758499E+02 -0.53575805943E+00  0.48700954515E+02  0.65393608053E+02  0.00000000000E+00 0.  1.
</event>
<event>
12   0  0.1523332E-01  0.1829372E+03  0.7957747E-01  0.1170710E+00
       21   -1    0    0  501  503  0.00000000000E+00  0.00000000000E+00  0.38270471111E+03  0.38270471111E+03  0.00000000000E+00 0.  1.
       21   -1    0    0  503  504  0.00000000000E+00  0.00000000000E+00 -0.87274461683E+02  0.87274461683E+02  0.00000000000E+00 0.  1.
        6    2    1    2  501    0 -0.58071671635E+02 -0.74755173497E+01  0.14932659489E+03  0.23614495252E+03  0.17331417788E+03 0.  0.
       24    2    3    3    0    0 -0.80037550617E+02 -0.42064849356E+02  0.66560554154E+02  0.14367209582E+03  0.89643196543E+02 0.  0.
       -6    2    1    2    0  504  0.58071671635E+02  0.74755173497E+01  0.14610365454E+03  0.23383422028E+03  0.17292762155E+03 0.  0.
      -24    2    5    5    0    0  0.55259274566E+02  0.50272641067E+02  0.36531328327E+02  0.11607307198E+03  0.80978356519E+02 0.  0.
        5    1    3    3  501    0  0.21965878983E+02  0.34589332006E+02  0.82766040734E+02  0.92472856703E+02  0.47000000000E+01 0. -1.
        2    1    4    4  502    0  0.11003156985E+02 -0.34216510480E+02  0.18323622342E+02  0.40343452862E+02  0.00000000000E+00 0. -1.
       -1    1    4    4    0  502 -0.91040707603E+02 -0.78483388751E+01  0.48236931812E+02  0.10332864295E+03  0.00000000000E+00 0.  1.
       -5    1    5    5    0  504  0.28123970684E+01 -0.42797123717E+02  0.10957232622E+03  0.11776114830E+03  0.47000000000E+01 0.  1.
       13    1    6    6    0    0  0.46826975653E+02 -0.11019058521E+02  0.12524426345E+02  0.49709622356E+02  0.00000000000E+00 0. -1.
      -14    1    6    6    0    0  0.84322989129E+01  0.61291699588E+02  0.24006901983E+02  0.66363449625E+02  0.00000000000E+00 0.  1.
</event>
<event>
12   0  0.1523332E-01  0.1949659E+03  0.7957747E-01  0.1160156E+00
       -1   -1    0    0    0  501  0.00000000000E+00  0.00000000000E+00  0.29057162266E+02  0.29057162266E+02  0.00000000000E+00 0. -1.
        1   -1    0    0  502    0  0.00000000000E+00  0.00000000000E+00 -0.13081697069E+04  0.13081697069E+04  0.00000000000E+00 0.  1.
        6    2    1    2  502    0 -0.90072945906E+02  0.19791235808E+02 -0.63992590965E+03  0.66897239179E+03  0.17179657314E+03 0.  0.
       24    2    3    3    0    0  0.15727807329E+02 -0.10212077896E+02 -0.24152440249E+03  0.25564461735E+03  0.81660779595E+02 0.  0.
       -6    2    1    2    0  501  0.90072945906E+02 -0.19791235808E+02 -0.63918663494E+03  0.66825447733E+03  0.17175466103E+03 0.  0.
      -24    2    5    5    0    0  0.37014078296E+02 -0.59377525202E+02 -0.22779111172E+03  0.25154032558E+03  0.80548198767E+02 0.  0.
        5    1    3    3  502    0 -0.10580075323E+03  0.30003313704E+02 -0.39840150716E+03  0.41332777444E+03  0.47000000000E+01 0. -1.
        4    1    4    4  503    0  0.57244716369E+01  0.22003810513E+02 -0.16466848876E+02  0.28073018443E+02  0.00000000000E+00 0. -1.
       -3    1    4    4    0  503  0.10003335692E+02 -0.32215888408E+02 -0.22505755361E+03  0.22757159890E+03  0.00000000000E+00 0.  1.
       -5    1    5    5    0  501  0.53058867610E+02  0.39586289394E+02 -0.41139552322E+03  0.41671415175E+03  0.47000000000E+01 0.  1.
       13    1    6    6    0    0 -0.25796991577E+02 -0.15898694734E+02 -0.64321328798E+02  0.71101945170E+02  0.00000000000E+00 0. -1.
      -14    1    6    6    0    0  0.62811069873E+02 -0.43478830468E+02 -0.16346978292E+03  0.18043838041E+03  0.00000000000E+00 0.  1.
</event>
<event>
12   0  0.1523332E-01  0.2046984E+03  0.7957747E-01  0.1152211E+00
       21   -1    0    0  504  503  0.00000000000E+00  0.00000000000E+00  0.67086314753E+02  0.67086314753E+02  0.00000000000E+00 0. -1.
       21   -1    0    0  501  504  0.00000000000E+00  0.00000000000E+00 -0.67695398173E+03  0.67695398173E+03  0.00000000000E+00 0. -1.
        6    2    1    2  501    0  0.10388598978E+03 -0.34692855193E+02 -0.41309442860E+03  0.46010170416E+03  0.17044259491E+03 0.  0.
       24    2    3    3    0    0  0.45413042143E+02 -0.85094472736E+02 -0.22995080552E+03  0.26129756605E+03  0.78074524503E+02 0.  0.
       -6    2    1    2    0  503 -0.10388598978E+03  0.34692855193E+02 -0.19677323837E+03  0.28393859232E+03  0.17293213638E+03 0.  0.
      -24    2    5    5    0    0 -0.99383108758E+01 -0.90774154403E+00 -0.20272416563E+02  0.80792834401E+02  0.77568790112E+02 0.  0.
        5    1    3    3  501    0  0.58472947639E+02  0.50401617543E+02 -0.18314362308E+03  0.19880413812E+03  0.47000000000E+01 0. -1.
        4    1    4    4  502    0  0.34367353835E+02 -0.53837007268E+02 -0.58310431653E+02  0.86484939734E+02  0.00000000000E+00 0. -1.
       -3    1    4    4    0  502  0.11045688308E+02 -0.31257465467E+02 -0.17164037387E+03  0.17481262631E+03  0.00000000000E+00 0.  1.
       -5    1    5    5    0  503 -0.93947678907E+02  0.35600596737E+02 -0.17650082181E+03  0.20314575792E+03  0.47000000000E+01 0.  1.
       13    1    6    6    0    0 -0.39611082544E+02 -0.18159844738E+01  0.72510934669E+01  0.40310222231E+02  0.00000000000E+00 0. -1.
      -14    1    6    6    0    0  0.29672771668E+02  0.90824292978E+00 -0.27523510030E+02  0.40482612169E+02  0.00000000000E+00 0.  1.
</event>
<event>
12   0  0.1523332E-01  0.1956907E+03  0.7957747E-01  0.1159547E+00
       21   -1    0    0  504  503  0.00000000000E+00  0.00000000000E+00  0.32832777639E+03  0.32832777639E+03  0.00000000000E+00 0. -1.
       21   -1    0    0  501  504  0.00000000000E+00  0.00000000000E+00 -0.14127770894E+03  0.14127770894E+03  0.00000000000E+00 0. -1.
        6    2    1    2  501    0 -0.22510990401E+02 -0.88078601100E+02 -0.55172237976E+01  0.19576843392E+03  0.17329239828E+03 0.  0.
       24    2    3    3    0    0  0.54338660170E+02 -0.54797399247E+02 -0.11650150888E+02  0.11166605592E+03  0.79863239834E+02 0.  0.
       -6    2    1    2    0  503  0.22510990401E+02  0.88078601100E+02  0.19256729125E+03  0.27383705141E+03  0.17216266844E+03 0.  0.
      -24    2    5    5    0    0 -0.23441520918E+02  0.82974960918E+02  0.19421841648E+03  0.22733439929E+03  0.80782341865E+02 0.  0.
        5    1    3    3  501    0 -0.76849650571E+02 -0.33281201853E+02  0.61329270901E+01  0.84102377995E+02  0.47000000000E+01 0. -1.
        4    1    4    4  502    0 -0.14025113175E+02 -0.27587544958E+02 -0.21136874995E+02  0.37477245375E+02  0.00000000000E+00 0. -1.
       -3    1    4    4    0  502  0.68363773345E+02 -0.27209854289E+02  0.94867241072E+01  0.74188810549E+02  0.00000000000E+00 0.  1.
       -5    1    5    5    0  503  0.45952511319E+02  0.51036401816E+01 -0.16511252321E+01  0.46502652120E+02  0.47000000000E+01 0.  1.
       11    1    6    6    0    0  0.23700284871E+02  0.60564755677E+02  0.93515913892E+02  0.11390794215E+03  0.00000000000E+00 0. -1.
      -12    1    6    6    0    0 -0.47141805789E+02  0.22410205242E+02  0.10070250259E+03  0.11342645714E+03  0.00000000000E+00 0.  1.
</event>
<event>
12   0  0.1523332E-01  0.2236256E+03  0.7957747E-01  0.1138061E+00
       21   -1    0    0  501  503  0.00000000000E+00  0.00000000000E+00  0.54382067754E+02  0.54382067754E+02  0.00000000000E+00 0.  1.
       21   -1    0    0  503  504  0.00000000000E+00  0.00000000000E+00 -0.92521480543E+03  0.92521480543E+03  0.00000000000E+00 0. -1.
        6    2    1    2  501    0 -0.21962084558E+02  0.13739200056E+03 -0.47966034960E+03  0.52922816655E+03  0.17507000405E+03 0.  0.
       24    2    3    3    0    0 -0.81286552906E+02  0.85019170619E+02 -0.23616001983E+03  0.27314847884E+03  0.70730286805E+02 0.  0.
       -6    2    1    2    0  504  0.21962084558E+02 -0.13739200056E+03 -0.39117238808E+03  0.45036870663E+03  0.17452002676E+03 0.  0.
      -24    2    5    5    0    0  0.39117334065E+02 -0.10871240009E+03 -0.39221258154E+03  0.41660490840E+03  0.79877336134E+02 0.  0.
        5    1    3    3  501    0  0.59324468347E+02  0.52372829942E+02 -0.24350032976E+03  0.25607968771E+03  0.47000000000E+01 0. -1.
      -11    1    4    4    0    0 -0.50025587455E+01 -0.76097698156E+01 -0.10255140387E+01  0.91643804860E+01  0.00000000000E+00 0.  1.
       12    1    4    4    0    0 -0.76283994160E+02  0.92628940434E+02 -0.23513450579E+03  0.26398409836E+03  0.00000000000E+00 0. -1.
       -5    1    5    5    0  504 -0.17155249507E+02 -0.28679600467E+02  0.10401934585E+01  0.33763798232E+02  0.47000000000E+01 0.  1.
        3    1    6    6  502    0  0.59912447886E+02 -0.82565905270E+02 -0.24020476058E+03  0.26096926472E+03  0.00000000000E+00 0. -1.
       -4    1    6    6    0  502 -0.20795113820E+02 -0.26146494824E+02 -0.15200782096E+03  0.15563564368E+03  0.00000000000E+00 0.  1.
</event>
<event>
12   0  0.1523332E-01  0.2055170E+03  0.7957747E-01  0.1151564E+00
        2   -1    0    0  502    0  0.00000000000E+00  0.00000000000E+00  0.82745243545E+03  0.82745243545E+03  0.00000000000E+00 0. -1.
       -2   -1    0    0    0  501  0.00000000000E+00  0.00000000000E+00 -0.79681803994E+02  0.79681803994E+02  0.00000000000E+00 0.  1.
        6    2    1    2  502    0 -0.10610383732E+03 -0.25512922223E+02  0.64481253449E+03  0.67651841293E+03  0.17316184598E+03 0.  0.
       24    2    3    3    0    0 -0.12440089006E+03  0.18696108415E+02  0.37713613309E+03  0.40455891889E+03  0.74907476665E+02 0.  0.
       -6    2    1    2    0  501  0.10610383732E+03  0.25512922223E+02  0.10295809696E+03  0.23061582651E+03  0.17514096098E+03 0.  0.
      -24    2    5    5    0    0  0.99955828301E+02 -0.35211354682E+02  0.93401905371E+02  0.16865901398E+03  0.92146296515E+02 0.  0.
        5    1    3    3  502    0  0.18297052734E+02 -0.44209030638E+02  0.26767640140E+03  0.27195949404E+03  0.47000000000E+01 0. -1.
        2    1    4    4  503    0 -0.25131188545E+02  0.70380735306E+01  0.19553012081E+03  0.19726413577E+03  0.00000000000E+00 0. -1.
       -1    1    4    4    0  503 -0.99269701514E+02  0.11658034884E+02  0.18160601228E+03  0.20729478312E+03  0.00000000000E+00 0.  1.
       -5    1    5    5    0  501  0.61480090236E+01  0.60724276905E+02  0.95561915930E+01  0.61956812526E+02  0.47000000000E+01 0.  1.
       13    1    6    6    0    0  0.25480155654E+02  0.24613527377E+02  0.53599143531E+00  0.35430937736E+02  0.00000000000E+00 0. -1.
      -14    1    6    6    0    0  0.74475672648E+02 -0.59824882059E+02  0.92865913936E+02  0.13322807625E+03  0.00000000000E+00 0.  1.
</event>
<event>
12   0  0.1523332E-01  0.2101078E+03  0.7957747E-01  0.1148001E+00
       21   -1    0    0  501  503  0.00000000000E+00  0.00000000000E+00  0.38473770023E+03  0.38473770023E+03  0.00000000000E+00 0. -1.
       21   -1    0    0  503  504  0.00000000000E+00  0.00000000000E+00 -0.13063917583E+03  0.13063917583E+03  0.00000000000E+00 0.  1.
        6    2    1    2  501    0  0.28793950286E+02 -0.11439329866E+03  0.21929661774E+03  0.30370426776E+03  0.17386879350E+03 0.  0.
       24    2    3    3    0    0 -0.40001252402E+02 -0.24786658109E+02  0.68395604321E+02  0.11514304217E+03  0.79783976190E+02 0.  0.
       -6    2    1    2    0  504 -0.28793950286E+02  0.11439329866E+03  0.34801906663E+02  0.21167260830E+03  0.17227652784E+03 0.  0.
      -24    2    5    5    0    0 -0.25698379210E+02  0.17928226349E+02  0.68081027793E+02  0.10947337817E+03  0.79797031203E+02 0.  0.
        5    1    3    3  501    0  0.68795202687E+02 -0.89606640550E+02  0.15090101342E+03  0.18856122558E+03  0.47000000000E+01 0. -1.
        2    1    4    4  502    0 -0.43406214566E+02  0.87250679137E+01  0.66006848263E+01  0.44763772330E+02  0.00000000000E+00 0. -1.
       -1    1    4    4    0  502  0.34049621645E+01 -0.33511726023E+02  0.61794919495E+02  0.70379269843E+02  0.00000000000E+00 0.  1.
       -5    1    5    5    0  504 -0.30955710760E+01  0.96465072309E+02 -0.33279121130E+02  0.10219923013E+03  0.47000000000E+01 0.  1.
       13    1    6    6    0    0  0.11927218394E+02  0.12163552883E+02  0.69325972827E+02  0.71388381869E+02  0.00000000000E+00 0. -1.
      -14    1    6    6    0    0 -0.37625597604E+02  0.57646734665E+01 -0.12449450348E+01  0.38084996302E+02  0.00000000000E+00 0.  1.
</event>
<event>
12   0  0.1523332E-01  0.1946711E+03  0.7957747E-01  0.1160405E+00
       21   -1    0    0  504  503  0.00000000000E+00  0.00000000000E+00  0.10707660270E+03  0.10707660270E+03  0.00000000000E+00 0.  1.
       21   -1    0    0  501  504  0.00000000000E+00  0.00000000000E+00 -0.40367576217E+03  0.40367576217E+03  0.00000000000E+00 0.  1.
        6    2    1    2  501    0  0.47439450175E+02  0.74139991960E+02 -0.23848397938E+03  0.30784970628E+03  0.17363638270E+03 0.  0.
       24    2    3    3    0    0 -0.13250734668E+02  0.19120068103E+02 -0.20164702336E+03  0.21790782568E+03  0.79253640221E+02 0.  0.
       -6    2    1    2    0  503 -0.47439450175E+02 -0.74139991960E+02 -0.58115180090E+02  0.20290265858E+03  0.17333457492E+03 0.  0.
      -24    2    5    5    0    0 -0.76647437698E+02 -0.54391782247E+02  0.11807083579E+02  0.12445323998E+03  0.80721162270E+02 0.  0.
        5    1    3    3  501    0  0.60690184843E+02  0.55019923856E+02 -0.36836956018E+02  0.89941880601E+02  0.47000000000E+01 0. -1.
      -13    1    4    4    0    0  0.26089116131E+02 -0.13209505423E+02 -0.49804405599E+02  0.57754755917E+02  0.00000000000E+00 0.  1.
       14    1    4    4    0    0 -0.39339850799E+02  0.32329573526E+02 -0.15184261776E+03  0.16015306976E+03  0.00000000000E+00 0. -1.
       -5    1    5    5    0  503  0.29207987524E+02 -0.19748209713E+02 -0.69922263670E+02  0.78449418600E+02  0.47000000000E+01 0.  1.
        3    1    6    6  502    0 -0.26133442502E+02 -0.61273777307E+02 -0.12819167982E+02  0.67836300534E+02  0.00000000000E+00 0. -1.
       -4    1    6    6    0  502 -0.50513995196E+02  0.68819950600E+01  0.24626251561E+02  0.56616939450E+02  0.00000000000E+00 0.  1.
</event>
<event>
12   0  0.1523332E-01  0.3120087E+03  0.7957747E-01  0.1087752E+00
       21   -1    0    0  501  503  0.00000000000E+00  0.00000000000E+00  0.64850980802E+03  0.64850980802E+03  0.00000000000E+00 0. -1.
       21   -1    0    0  503  504  0.00000000000E+00  0.00000000000E+00 -0.25923261828E+03  0.25923261828E+03  0.00000000000E+00 0.  1.
        6    2    1    2  501    0  0.19155933322E+03 -0.17509155236E+03  0.48928458071E+03  0.58009792008E+03  0.17251714731E+03 0.  0.
       24    2    3    3    0    0  0.38851964375E+02 -0.10352391055E+03  0.16022118558E+03  0.21030571375E+03  0.79567516839E+02 0.  0.
       -6    2    1    2    0  504 -0.19155933322E+03  0.17509155236E+03 -0.10000739097E+03  0.32764450622E+03  0.17319761648E+03 0.  0.
      -24    2    5    5    0    0 -0.20791327887E+03  0.13239239242E+03 -0.10833036988E+03  0.28093228324E+03  0.80198513842E+02 0.  0.
        5    1    3    3  501    0  0.15270736885E+03 -0.71567641814E+02  0.32906339512E+03  0.36979220633E+03  0.47000000000E+01 0. -1.
      -11    1    4    4    0    0  0.10792786034E+02 -0.96484429171E+01 -0.73169596693E+01  0.16220807005E+02  0.00000000000E+00 0.  1.
       12    1    4    4    0    0  0.28059178341E+02 -0.93875467630E+02  0.16753814525E+03  0.19408490675E+03  0.00000000000E+00 0. -1.
       -5    1    5    5    0  504  0.16353945650E+02  0.42699159940E+02  0.83229789161E+01  0.46712222982E+02  0.47000000000E+01 0.  1.
        3    1    6    6  502    0 -0.36101411232E+02  0.56201418027E+02 -0.63473782818E+01  0.67098438821E+02  0.00000000000E+00 0. -1.
       -4    1    6    6    0  502 -0.17181186764E+03  0.76190974395E+02 -0.10198299160E+03  0.21383384442E+03  0.00000000000E+00 0.  1.
</event>
<event>
12   0  0.1523332E-01  0.2021271E+03  0.7957747E-01  0.1154262E+00
       21   -1    0    0  501  503  0.00000000000E+00  0.00000000000E+00  0.86827773958E+02  0.86827773958E+02  0.00000000000E+00 0.  1.
       21   -1    0    0  503  504  0.00000000000E+00  0.00000000000E+00 -0.48298268115E+03  0.48298268115E+03  0.00000000000E+00 0.  1.
        6    2    1    2  501    0 -0.51919004145E+02 -0.90691249799E+02 -0.15017107411E+03  0.25180687474E+03  0.17301694971E+03 0.  0.
       24    2    3    3    0    0 -0.41878548538E+02 -0.11249375210E+03 -0.16722071094E+03  0.22199177837E+03  0.83119951933E+02 0.  0.
       -6    2    1    2    0  504  0.51919004145E+02  0.90691249799E+02 -0.24598383309E+03  0.31800358037E+03  0.17233033745E+03 0.  0.
      -24    2    5    5    0    0  0.20320362131E+02 -0.14785093361E+02 -0.14746752346E+03  0.17018177411E+03  0.81139692260E+02 0.  0.
        5    1    3    3  501    0 -0.10040455608E+02  0.21802502305E+02  0.17049636829E+02  0.29815096370E+02  0.47000000000E+01 0. -1.
        2    1    4    4  502    0 -0.36514742151E+02 -0.39480231830E+02 -0.12822055036E+03  0.13904144934E+03  0.00000000000E+00 0. -1.
       -1    1    4    4    0  502 -0.53638063871E+01 -0.73013520275E+02 -0.39000160575E+02  0.82950329033E+02  0.00000000000E+00 0.  1.
       -5    1    5    5    0  504  0.31598642014E+02  0.10547634316E+03 -0.98516309630E+02  0.14782180626E+03  0.47000000000E+01 0.  1.
       13    1    6    6    0    0 -0.28333514804E+02 -0.21050634580E+02 -0.52003346616E+02  0.62851136319E+02  0.00000000000E+00 0. -1.
      -14    1    6    6    0    0  0.48653876935E+02  0.62655412182E+01 -0.95464176841E+02  0.10733063779E+03  0.00000000000E+00 0.  1.
</event>
<event>
12   0  0.1523332E-01  0.1821455E+03  0.7957747E-01  0.1171436E+00
       21   -1    0    0  501  503  0.00000000000E+00  0.00000000000E+00  0.54438879534E+03  0.54438879534E+03  0.00000000000E+00 0. -1.
       21   -1    0    0  503  504  0.00000000000E+00  0.00000000000E+00 -0.82870021682E+02  0.82870021682E+02  0.00000000000E+00 0. -1.
        6    2    1    2  501    0 -0.49224335113E+02  0.99980329545E-01  0.39284918713E+03  0.43259887432E+03  0.17432227935E+03 0.  0.
       24    2    3    3    0    0 -0.36144945575E+02  0.38273439216E+02  0.10720477982E+03  0.14408006935E+03  0.80590870011E+02 0.  0.
       -6    2    1    2    0  504  0.49224335113E+02 -0.99980329545E-01  0.68669586530E+02  0.19465994270E+03  0.17536800168E+03 0.  0.
      -24    2    5    5    0    0 -0.39938726594E+02 -0.32708055333E+01  0.53510562817E+02  0.10403990239E+03  0.79719012198E+02 0.  0.
        5    1    3    3  501    0 -0.13079389537E+02 -0.38173458886E+02  0.28564440731E+03  0.28851880497E+03  0.47000000000E+01 0. -1.
      -11    1    4    4    0    0 -0.12997710810E+02 -0.23680345888E+02  0.15921033775E+02  0.31355678658E+02  0.00000000000E+00 0.  1.
       12    1    4    4    0    0 -0.23147234766E+02  0.61953785104E+02  0.91283746042E+02  0.11272439069E+03  0.00000000000E+00 0. -1.
       -5    1    5    5    0  504  0.89163061706E+02  0.31708252037E+01  0.15159023713E+02  0.90620040307E+02  0.47000000000E+01 0.  1.
        3    1    6    6  502    0 -0.24933418496E+01 -0.31224114206E+02 -0.21113574095E+01  0.31394583794E+02  0.00000000000E+00 0. -1.
       -4    1    6    6    0  502 -0.37445384744E+02  0.27953308672E+02  0.55621920227E+02  0.72645318597E+02  0.00000000000E+00 0.  1.
</event>
<event>
12   0  0.1523332E-01  0.1943487E+03  0.7957747E-01  0.1160677E+00
       -2   -1    0    0    0  501  0.00000000000E+00  0.00000000000E+00  0.68854599020E+02  0.68854599020E+02  0.00000000000E+00 0.  1.
        2   -1    0    0  502    0  0.00000000000E+00  0.00000000000E+00 -0.64459666692E+03  0.64459666692E+03  0.00000000000E+00 0. -1.
        6    2    1    2  502    0  0.39585450411E+02 -0.77244653428E+02 -0.42587393578E+03  0.46822849724E+03  0.17417110002E+03 0.  0.
       24    2    3    3    0    0  0.45431153905E+01 -0.31336507823E+02 -0.84926925787E+02  0.12239258716E+03  0.82248076258E+02 0.  0.
       -6    2    1    2    0  501 -0.39585450411E+02  0.77244653428E+02 -0.14986813212E+03  0.24522276870E+03  0.17360876964E+03 0.  0.
      -24    2    5    5    0    0 -0.65007777207E+02  0.92398609332E+02 -0.16183018970E+03  0.21295641004E+03  0.79986925018E+02 0.  0.
        5    1    3    3  502    0  0.35042335021E+02 -0.45908145605E+02 -0.34094701000E+03  0.34583591008E+03  0.47000000000E+01 0. -1.
        4    1    4    4  503    0 -0.25667351976E+02 -0.33768415166E+02 -0.81518513150E+02  0.91893344735E+02  0.00000000000E+00 0. -1.
       -3    1    4    4    0  503  0.30210467367E+02  0.24319073434E+01 -0.34084126369E+01  0.30499242426E+02  0.00000000000E+00 0.  1.
       -5    1    5    5    0  501  0.25422326796E+02 -0.15153955904E+02  0.11962057588E+02  0.32266358657E+02  0.47000000000E+01 0.  1.
       11    1    6    6    0    0 -0.25001902957E+02  0.19840675298E+02 -0.11157546032E+03  0.11605098402E+03  0.00000000000E+00 0. -1.
      -12    1    6    6    0    0 -0.40005874250E+02  0.72557934034E+02 -0.50254729386E+02  0.96905426017E+02  0.00000000000E+00 0.  1.
</event>
<event>
12   0  0.1523332E-01  0.2069289E+03  0.7957747E-01  0.1150458E+00
       -2   -1    0    0    0  501  0.00000000000E+00  0.00000000000E+00  0.94333376391E+02  0.94333376391E+02  0.00000000000E+00 0.  1.
        2   -1    0    0  502    0  0.00000000000E+00  0.00000000000E+00 -0.91223380420E+03  0.91223380420E+03  0.00000000000E+00 0. -1.
        6    2    1    2  502    0  0.11317167452E+03 -0.24751897626E+02 -0.76655137012E+03  0.79422281887E+03  0.17253520982E+03 0.  0.
       24    2    3    3    0    0  0.31694642231E+02 -0.55039006578E+02 -0.24955988517E+03  0.26995370737E+03  0.81000155839E+02 0.  0.
       -6    2    1    2    0  501 -0.11317167452E+03  0.24751897626E+02 -0.51349057691E+02  0.21234436172E+03  0.17039048647E+03 0.  0.
      -24    2    5    5    0    0 -0.74275591636E+01  0.48112548999E+02 -0.56353444626E+01  0.94703503417E+02  0.81037093025E+02 0.  0.
        5    1    3    3  502    0  0.81477032294E+02  0.30287108952E+02 -0.51699148494E+03  0.52426911149E+03  0.47000000000E+01 0. -1.
        4    1    4    4  503    0 -0.14193136145E+02 -0.34727766295E+02 -0.18182554440E+03  0.18565557213E+03  0.00000000000E+00 0. -1.
       -3    1    4    4    0  503  0.45887778376E+02 -0.20311240283E+02 -0.67734340773E+02  0.84298135247E+02  0.00000000000E+00 0.  1.
       -5    1    5    5    0  501 -0.10574411536E+03 -0.23360651373E+02 -0.45713713228E+02  0.11764085831E+03  0.47000000000E+01 0.  1.
       13    1    6    6    0    0  0.30992774197E+02  0.16762386896E+02  0.18229633615E+02  0.39671768408E+02  0.00000000000E+00 0. -1.
      -14    1    6    6    0    0 -0.38420333361E+02  0.31350162103E+02 -0.23864978078E+02  0.55031735009E+02  0.00000000000E+00 0.  1.
</event>
<event>
12   0  0.1523332E-01  0.1891459E+03  0.7957747E-01  0.1165155E+00
        1   -1    0    0  502    0  0.00000000000E+00  0.00000000000E+00  0.13883948560E+04  0.13883948560E+04  0.00000000000E+00 0. -1.
       -1   -1    0    0    0  501  0.00000000000E+00  0.00000000000E+00 -0.25999809864E+02  0.25999809864E+02  0.00000000000E+00 0.  1.
        6    2    1    2  502    0 -0.51899526471E+02  0.53251649700E+02  0.74437027489E+03  0.76778511567E+03  0.17285131950E+03 0.  0.
       24    2    3    3    0    0 -0.18233087357E+01 -0.15431374260E+02  0.48005342247E+03  0.49009738846E+03  0.97481844415E+02 0.  0.
       -6    2    1    2    0  501  0.51899526471E+02 -0.53251649700E+02  0.61802477121E+03  0.64660955016E+03  0.17498569510E+03 0.  0.
      -24    2    5    5    0    0 -0.20132275055E+02 -0.48757358184E+01  0.15722059622E+03  0.17768377015E+03  0.80150639423E+02 0.  0.
        5    1    3    3  502    0 -0.50076217735E+02  0.68683023960E+02  0.26431685243E+03  0.27768772720E+03  0.47000000000E+01 0. -1.
      -11    1    4    4    0    0  0.40996421694E+00 -0.18418053881E+02  0.11905823932E+02  0.21934936127E+02  0.00000000000E+00 0.  1.
       12    1    4    4    0    0 -0.22332729526E+01  0.29866796212E+01  0.46814759853E+03  0.46816245234E+03  0.00000000000E+00 0. -1.
       -5    1    5    5    0  501  0.72031801526E+02 -0.48375913881E+02  0.46080417499E+03  0.46892578001E+03  0.47000000000E+01 0.  1.
        3    1    6    6  503    0  0.93825168773E+01  0.33015266323E+02  0.56724777852E+02  0.66300375984E+02  0.00000000000E+00 0. -1.
       -4    1    6    6    0  503 -0.29514791933E+02 -0.37891002141E+02  0.10049581837E+03  0.11138339416E+03  0.00000000000E+00 0.  1.
</event>
<event>
12   0  0.1523332E-01  0.1807541E+03  0.7957747E-01  0.1172721E+00
       21   -1    0    0  504  503  0.00000000000E+00  0.00000000000E+00  0.21602254211E+03  0.21602254211E+03  0.00000000000E+00 0. -1.
       21   -1    0    0  501  504  0.00000000000E+00  0.00000000000E+00 -0.15274556477E+03  0.15274556477E+03  0.00000000000E+00 0. -1.
        6    2    1    2  501    0  0.12557142704E+02  0.30542723250E+02  0.69974204193E+02  0.19382578544E+03  0.17771186250E+03 0.  0.
       24    2    3    3    0    0  0.66823857219E+02  0.51941930505E+02  0.21206712923E+02  0.11764730698E+03  0.78916234887E+02 0.  0.
       -6    2    1    2    0  503 -0.12557142704E+02 -0.30542723250E+02 -0.66972268478E+01  0.17494232144E+03  0.17166660481E+03 0.  0.
      -24    2    5    5    0    0  0.48152246717E+02 -0.54731379515E+02 -0.15056381925E+02  0.10889168534E+03  0.79476674133E+02 0.  0.
        5    1    3    3  501    0 -0.54266714515E+02 -0.21399207256E+02  0.48767491270E+02  0.76178478458E+02  0.47000000000E+01 0. -1.
      -13    1    4    4    0    0  0.32113299609E+02  0.92384486267E+01  0.46353946666E+02  0.57142815089E+02  0.00000000000E+00 0.  1.
       14    1    4    4    0    0  0.34710557611E+02  0.42703481878E+02 -0.25147233743E+02  0.60504491892E+02  0.00000000000E+00 0. -1.
       -5    1    5    5    0  503 -0.60709389420E+02  0.24188656265E+02  0.83591550776E+01  0.66050636101E+02  0.47000000000E+01 0.  1.
        3    1    6    6  502    0  0.42658668364E+02 -0.10092146251E+02  0.23422708350E+02  0.49701475522E+02  0.00000000000E+00 0. -1.
       -4    1    6    6    0  502  0.54935783523E+01 -0.44639233263E+02 -0.38479090276E+02  0.59190209814E+02  0.00000000000E+00 0.  1.
</event>
<event>
12   0  0.1523332E-01  0.1960857E+03  0.7957747E-01  0.1159216E+00
       21   -1    0    0  501  503  0.00000000000E+00  0.00000000000E+00  0.12850283739E+03  0.12850283739E+03  0.00000000000E+00 0.  1.
       21   -1    0    0  503  504  0.00000000000E+00  0.00000000000E+00 -0.30879621865E+03  0.30879621865E+03  0.00000000000E+00 0.  1.
        6    2    1    2  501    0 -0.14905039676E+02 -0.91086433718E+02 -0.49703420449E+02  0.20228700351E+03  0.17300492238E+03 0.  0.
       24    2    3    3    0    0 -0.59846141971E+02 -0.13985280844E+02 -0.53287595206E+01  0.10250979678E+03  0.81870104240E+02 0.  0.
       -6    2    1    2    0  504  0.14905039676E+02  0.91086433718E+02 -0.13058996081E+03  0.23501205253E+03  0.17221506425E+03 0.  0.
      -24    2    5    5    0    0 -0.50375798896E+02  0.43731432419E+02 -0.10910601136E+03  0.15141938469E+03  0.81077426259E+02 0.  0.
        5    1    3    3  501    0  0.44941102295E+02 -0.77101152873E+02 -0.44374660928E+02  0.99777206728E+02  0.47000000000E+01 0. -1.
        2    1    4    4  502    0 -0.28868111043E+02  0.34265619539E+02  0.10455700554E+01  0.44817337430E+02  0.00000000000E+00 0. -1.
       -1    1    4    4    0  502 -0.30978030928E+02 -0.48250900384E+02 -0.63743295760E+01  0.57692459348E+02  0.00000000000E+00 0.  1.
       -5    1    5    5    0  504  0.65280838572E+02  0.47355001299E+02 -0.21483949449E+02  0.83592667840E+02  0.47000000000E+01 0.  1.
       13    1    6    6    0    0 -0.54142121997E+02 -0.57824449975E+01 -0.47212818308E+02  0.72068413726E+02  0.00000000000E+00 0. -1.
      -14    1    6    6    0    0  0.37663231004E+01  0.49513877417E+02 -0.61893193051E+02  0.79350970962E+02  0.00000000000E+00 0.  1.
</event>
<event>
12   0  0.1523332E-01  0.1911337E+03  0.7957747E-01  0.1163425E+00
       21   -1    0    0  504  503  0.00000000000E+00  0.00000000000E+00  0.24408793035E+03  0.24408793035E+03  0.00000000000E+00 0. -1.
       21   -1    0    0  501  504  0.00000000000E+00  0.00000000000E+00 -0.58221240204E+03  0.58221240204E+03  0.00000000000E+00 0.  1.
        6    2    1    2  501    0 -0.55064172511E+02 -0.57069016527E+02 -0.52534565725E+03  0.55903502558E+03  0.17390561952E+03 0.  0.
       24    2    3    3    0    0  0.10351944030E+02  0.14342090492E+02 -0.33992516835E+03  0.34979434547E+03  0.80586014581E+02 0.  0.
       -6    2    1    2    0  503  0.55064172511E+02  0.57069016527E+02  0.18722118555E+03  0.26726530681E+03  0.17346479805E+03 0.  0.
      -24    2    5    5    0    0  0.52374157032E+02 -0.31836212644E+02  0.10955270184E+03  0.14908806992E+03  0.80429231942E+02 0.  0.
        5    1    3    3  501    0 -0.65416116541E+02 -0.71411107019E+02 -0.18542048890E+03  0.20924068011E+03  0.47000000000E+01 0. -1.
      -11    1    4    4    0    0  0.16482590028E+02 -0.21243347634E+02 -0.43228212610E+02  0.50908093249E+02  0.00000000000E+00 0.  1.
       12    1    4    4    0    0 -0.61306459981E+01  0.35585438126E+02 -0.29669695573E+03  0.29888625223E+03  0.00000000000E+00 0. -1.
       -5    1    5    5    0  503  0.26900154787E+01  0.88905229170E+02  0.77668483709E+02  0.11817723689E+03  0.47000000000E+01 0.  1.
        3    1    6    6  502    0  0.33020436891E+02  0.13128275540E+02  0.89301723838E+02  0.96111907439E+02  0.00000000000E+00 0. -1.
       -4    1    6    6    0  502  0.19353720141E+02 -0.44964488184E+02  0.20250978003E+02  0.52976162479E+02  0.00000000000E+00 0.  1.
</event>
<event>
12   0  0.1523332E-01  0.2461669E+03  0.7957747E-01  0.1123083E+00
       21   -1    0    0  504  503  0.00000000000E+00  0.00000000000E+00  0.54997923576E+03  0.54997923576E+03  0.00000000000E+00 0. -1.
       21   -1    0    0  501  504  0.00000000000E+00  0.00000000000E+00 -0.11376950956E+03  0.11376950956E+03  0.00000000000E+00 0. -1.
        6    2    1    2  501    0 -0.14128589982E+03  0.10148217994E+03  0.15337173494E+03  0.28878808531E+03  0.17209105381E+03 0.  0.
       24    2    3    3    0    0 -0.13829495695E+03  0.34503298799E+02  0.63281053368E+02  0.17638907657E+03  0.82417485241E+02 0.  0.
       -6    2    1    2    0  503  0.14128589982E+03 -0.10148217994E+03  0.28283799127E+03  0.37496066001E+03  0.17417757869E+03 0.  0.
      -24    2    5    5    0    0  0.15349807165E+03 -0.12212586565E+03  0.27867030374E+03  0.35016633567E+03  0.80516702521E+02 0.  0.
        5    1    3    3  501    0 -0.29909428747E+01  0.66978881146E+02  0.90090681573E+02  0.11239900874E+03  0.47000000000E+01 0. -1.
        4    1    4    4  502    0 -0.73016078018E+02  0.28338382683E+02  0.76518859578E+02  0.10949679198E+03  0.00000000000E+00 0. -1.
       -3    1    4    4    0  502 -0.65278878930E+02  0.61649161156E+01 -0.13237806210E+02  0.66892284595E+02  0.00000000000E+00 0.  1.
       -5    1    5    5    0  503 -0.12212171832E+02  0.20643685706E+02  0.41676875260E+01  0.24794324344E+02  0.47000000000E+01 0.  1.
       11    1    6    6    0    0  0.46305156332E+02 -0.84438551048E+02  0.15261662928E+03  0.18046016718E+03  0.00000000000E+00 0. -1.
      -12    1    6    6    0    0  0.10719291532E+03 -0.37687314602E+02  0.12605367446E+03  0.16970616849E+03  0.00000000000E+00 0.  1.
</event>
<event>
12   0  0.1523332E-01  0.2416448E+03  0.7957747E-01  0.1125944E+00
       21   -1    0    0  501  503  0.00000000000E+00  0.00000000000E+00  0.16829795923E+03  0.16829795923E+03  0.00000000000E+00 0. -1.
       21   -1    0    0  503  504  0.00000000000E+00  0.00000000000E+00 -0.39544243742E+03  0.39544243742E+03  0.00000000000E+00 0.  1.
        6    2    1    2  501    0 -0.12278591491E+03 -0.11516159958E+03 -0.21278800957E+03  0.32166948985E+03  0.17278295276E+03 0.  0.
       24    2    3    3    0    0 -0.87347635030E+01 -0.77065914992E+02 -0.14756856821E+03  0.18479505157E+03  0.79732536733E+02 0.  0.
       -6    2    1    2    0  504  0.12278591491E+03  0.11516159958E+03 -0.14356468618E+02  0.24207090681E+03  0.17335985929E+03 0.  0.
      -24    2    5    5    0    0  0.11101619535E+03  0.14251341557E+03 -0.41177629482E+02  0.20172102692E+03  0.79756543835E+02 0.  0.
        5    1    3    3  501    0 -0.11405115141E+03 -0.38095684587E+02 -0.65219441357E+02  0.13687443828E+03  0.47000000000E+01 0. -1.
        4    1    4    4  502    0  0.26459386619E+02 -0.70503017985E+02 -0.95825787010E+02  0.12187434571E+03  0.00000000000E+00 0. -1.
       -3    1    4    4    0  502 -0.35194150122E+02 -0.65628970065E+01 -0.51742781201E+02  0.62920705863E+02  0.00000000000E+00 0.  1.
       -5    1    5    5    0  504  0.11769719567E+02 -0.27351815994E+02  0.26821160864E+02  0.40349879888E+02  0.47000000000E+01 0.  1.
       11    1    6    6    0    0  0.57089536355E+02  0.12243494705E+03 -0.80664944536E+01  0.13533144407E+03  0.00000000000E+00 0. -1.
      -12    1    6    6    0    0  0.53926658992E+02  0.20078468518E+02 -0.33111135028E+02  0.66389582850E+02  0.00000000000E+00 0.  1.
</event>
<event>
12   0  0.1523332E-01  0.1969522E+03  0.7957747E-01  0.1158494E+00
        2   -1    0    0  502    0  0.00000000000E+00  0.00000000000E+00  0.18026869899E+03  0.18026869899E+03  0.00000000000E+00 0. -1.
       -2   -1    0    0    0  501  0.00000000000E+00  0.00000000000E+00 -0.21713445963E+03  0.21713445963E+03  0.00000000000E+00 0.  1.
        6    2    1    2  502    0 -0.90058992381E+02 -0.27389856249E+02 -0.37296728911E+02  0.20056843255E+03  0.17313527605E+03 0.  0.
       24    2    3    3    0    0 -0.83170198133E+02  0.39233785483E+02  0.20931605206E+01  0.12272359641E+03  0.81241171912E+02 0.  0.
       -6    2    1    2    0  501  0.90058992381E+02  0.27389856249E+02  0.43096827350E+00  0.19683472608E+03  0.17286670392E+03 0.  0.
      -24    2    5    5    0    0  0.10895100578E+03  0.13517644857E+02  0.47906874665E+02  0.14368025208E+03  0.79346693783E+02 0.  0.
        5    1    3    3  502    0 -0.68887942484E+01 -0.66623641732E+02 -0.39389889431E+02  0.77844836138E+02  0.47000000000E+01 0. -1.
        2    1    4    4  503    0 -0.84492394228E+02  0.47825233047E+01  0.14930360466E+02  0.85934584861E+02  0.00000000000E+00 0. -1.
       -1    1    4    4    0  503  0.13221960950E+01  0.34451262178E+02 -0.12837199946E+02  0.36789011547E+02  0.00000000000E+00 0.  1.
       -5    1    5    5    0  501 -0.18892013395E+02  0.13872211393E+02 -0.47475906392E+02  0.53154474005E+02  0.47000000000E+01 0.  1.
       13    1    6    6    0    0  0.11063225327E+03  0.26100065588E+02  0.23359353011E+02  0.11604468217E+03  0.00000000000E+00 0. -1.
      -14    1    6    6    0    0 -0.16812474935E+01 -0.12582420731E+02  0.24547521654E+02  0.27635569904E+02  0.00000000000E+00 0.  1.
</event>
<event>
12   0  0.1523332E-01  0.2533567E+03  0.7957747E-01  0.1118670E+00
       21   -1    0    0  504  503  0.00000000000E+00  0.00000000000E+00  0.63610848707E+02  0.63610848707E+02  0.00000000000E+00 0. -1.
       21   -1    0    0  501  504  0.00000000000E+00  0.00000000000E+00 -0.10244458602E+04  0.10244458602E+04  0.00000000000E+00 0.  1.
        6    2    1    2  501    0  0.18380598797E+03 -0.21926043604E+02 -0.55000807706E+03  0.60538871170E+03  0.17239841886E+03 0.  0.
       24    2    3    3    0    0  0.17395662461E+03  0.15664762910E+02 -0.32042941707E+03  0.37249704200E+03  0.74650806659E+02 0.  0.
       -6    2    1    2    0  503 -0.18380598797E+03  0.21926043604E+02 -0.41082693439E+03  0.48266799716E+03  0.17298622159E+03 0.  0.
      -24    2    5    5    0    0 -0.68429630708E+02  0.36706941207E+02 -0.30478373865E+03  0.32519600564E+03  0.82639584036E+02 0.  0.
        5    1    3    3  501    0  0.98493633625E+01 -0.37590806514E+02 -0.22957865999E+03  0.23289166970E+03  0.47000000000E+01 0. -1.
        4    1    4    4  502    0  0.15055604003E+03 -0.14494314930E+02 -0.24426865153E+03  0.28730537843E+03  0.00000000000E+00 0. -1.
       -3    1    4    4    0  502  0.23400584584E+02  0.30159077840E+02 -0.76160765545E+02  0.85191663579E+02  0.00000000000E+00 0.  1.
       -5    1    5    5    0  503 -0.11537635727E+03 -0.14780897603E+02 -0.10604319574E+03  0.15747199152E+03  0.47000000000E+01 0.  1.
       11    1    6    6    0    0  0.76579296389E+01  0.36116317618E+02 -0.87292143956E+02  0.94778429408E+02  0.00000000000E+00 0. -1.
      -12    1    6    6    0    0 -0.76087560347E+02  0.59062358852E+00 -0.21749159469E+03  0.23041757624E+03  0.00000000000E+00 0.  1.
</event>
<event>
12   0  0.1523332E-01  0.2520833E+03  0.7957747E-01  0.1119440E+00
       21   -1    0    0  501  503  0.00000000000E+00  0.00000000000E+00  0.58496837372E+03  0.58496837372E+03  0.00000000000E+00 0. -1.
       21   -1    0    0  503  504  0.00000000000E+00  0.00000000000E+00 -0.12770694599E+03  0.12770694599E+03  0.00000000000E+00 0. -1.
        6    2    1    2  501    0 -0.17674492850E+03 -0.43271328240E+02  0.36760795421E+03  0.44512390731E+03  0.17288292936E+03 0.  0.
       24    2    3    3    0    0 -0.18976337611E+03 -0.15866016761E+01  0.31604201586E+03  0.37738741489E+03  0.80783964442E+02 0.  0.
       -6    2    1    2    0  504  0.17674492850E+03  0.43271328240E+02  0.89653473521E+02  0.26755141240E+03  0.17445582641E+03 0.  0.
      -24    2    5    5    0    0  0.46367635725E+02 -0.85923067815E+01  0.85902654797E+02  0.12710842130E+03  0.80953686060E+02 0.  0.
        5    1    3    3  501    0  0.13018447617E+02 -0.41684726564E+02  0.51565938353E+02  0.67736492419E+02  0.47000000000E+01 0. -1.
      -11    1    4    4    0    0 -0.11657787670E+03  0.34519508964E+02  0.15642141077E+03  0.19811525832E+03  0.00000000000E+00 0.  1.
       12    1    4    4    0    0 -0.73185499417E+02 -0.36106110640E+02  0.15962060509E+03  0.17927215657E+03  0.00000000000E+00 0. -1.
       -5    1    5    5    0  504  0.13037729277E+03  0.51863635022E+02  0.37508187240E+01  0.14044299110E+03  0.47000000000E+01 0.  1.
        3    1    6    6  502    0  0.68836511259E+02 -0.19246002202E+01  0.53941936816E+02  0.87475150276E+02  0.00000000000E+00 0. -1.
       -4    1    6    6    0  502 -0.22468875534E+02 -0.66677065613E+01  0.31960717981E+02  0.39633271028E+02  0.00000000000E+00 0.  1.
</event>
<event>
12   0  0.1523332E-01  0.1889221E+03  0.7957747E-01  0.1165351E+00
       21   -1    0    0  501  503  0.00000000000E+00  0.00000000000E+00  0.73960790397E+02  0.73960790397E+02  0.00000000000E+00 0.  1.
       21   -1    0    0  503  504  0.00000000000E+00  0.00000000000E+00 -0.48285411233E+03  0.48285411233E+03  0.00000000000E+00 0.  1.
        6    2    1    2  501    0  0.36251937210E+02  0.62965674071E+02 -0.17803269894E+03  0.25850601433E+03  0.17277395200E+03 0.  0.
       24    2    3    3    0    0  0.61537259363E+02  0.88385295882E+02 -0.86312154605E+02  0.15991467119E+03  0.80772019970E+02 0.  0.
       -6    2    1    2    0  504 -0.36251937210E+02 -0.62965674071E+02 -0.23086062300E+03  0.29830888840E+03  0.17439233523E+03 0.  0.
      -24    2    5    5    0    0  0.19509823550E+02  0.22907890328E+02 -0.11437885158E+03  0.14315175483E+03  0.80650471594E+02 0.  0.
        5    1    3    3  501    0 -0.25285322153E+02 -0.25419621812E+02 -0.91720544334E+02  0.98591343141E+02  0.47000000000E+01 0. -1.
      -13    1    4    4    0    0  0.63892594087E+02  0.68127725414E+02 -0.27045634817E+02  0.97237425469E+02  0.00000000000E+00 0.  1.
       14    1    4    4    0    0 -0.23553347232E+01  0.20257570469E+02 -0.59266519788E+02  0.62677245718E+02  0.00000000000E+00 0. -1.
       -5    1    5    5    0  504 -0.55761760760E+02 -0.85873564398E+02 -0.11648177142E+03  0.15515713357E+03  0.47000000000E+01 0.  1.
        3    1    6    6  502    0  0.40074385457E+02 -0.63270635886E+01 -0.26970178899E+02  0.48717334217E+02  0.00000000000E+00 0. -1.
       -4    1    6    6    0  502 -0.20564561907E+02  0.29234953916E+02 -0.87408672676E+02  0.94434420610E+02  0.00000000000E+00 0.  1.
</event>
<event>
12   0  0.1523332E-01  0.3959291E+03  0.7957747E-01  0.1054416E+00
       -2   -1    0    0    0  501  0.00000000000E+00  0.00000000000E+00  0.21444789978E+03  0.21444789978E+03  0.00000000000E+00 0.  1.
        2   -1    0    0  502    0  0.00000000000E+00  0.00000000000E+00 -0.85459670690E+03  0.85459670690E+03  0.00000000000E+00 0. -1.
        6    2    1    2  502    0 -0.34033870994E+03 -0.10572450053E+03 -0.11672856558E+03  0.41269076932E+03  0.17227885990E+03 0.  0.
       24    2    3    3    0    0 -0.27649048899E+03 -0.21196108981E+02 -0.73758486004E+02  0.29827852332E+03  0.81446287098E+02 0.  0.
       -6    2    1    2    0  501  0.34033870994E+03  0.10572450053E+03 -0.52342024154E+03  0.65635383736E+03  0.17269482642E+03 0.  0.
      -24    2    5    5    0    0  0.30503940686E+03  0.11026987072E+03 -0.52307023687E+03  0.62045239322E+03  0.78423309204E+02 0.  0.
        5    1    3    3  502    0 -0.63848220947E+02 -0.84528391547E+02 -0.42970079572E+02  0.11441224600E+03  0.47000000000E+01 0. -1.
        2    1    4    4  503    0 -0.17162287387E+03 -0.70540339208E+01 -0.85394371827E+02  0.19182379667E+03  0.00000000000E+00 0. -1.
       -1    1    4    4    0  503 -0.10486761512E+03 -0.14142075060E+02  0.11635885824E+02  0.10645472665E+03  0.00000000000E+00 0.  1.
       -5    1    5    5    0  501  0.35299303080E+02 -0.45453701931E+01 -0.35000466687E+00  0.35901444141E+02  0.47000000000E+01 0.  1.
       13    1    6    6    0    0  0.28644390218E+03  0.83108453865E+02 -0.49103858172E+03  0.57452242162E+03  0.00000000000E+00 0. -1.
      -14    1    6    6    0    0  0.18595504672E+02  0.27161416857E+02 -0.32031655150E+02  0.45929971602E+02  0.00000000000E+00 0.  1.
</event>
<event>
12   0  0.1523332E-01  0.2906443E+03  0.7957747E-01  0.1098090E+00
       -1   -1    0    0    0  501  0.00000000000E+00  0.00000000000E+00  0.12152956961E+03  0.12152956961E+03  0.00000000000E+00 0. -1.
        1   -1    0    0  502    0  0.00000000000E+00  0.00000000000E+00 -0.10510814172E+04  0.10510814172E+04  0.00000000000E+00 0.  1.
        6    2    1    2  502    0 -0.21542370204E+03  0.92010521524E+02 -0.12346734131E+03  0.31569842578E+03  0.17189532920E+03 0.  0.
       24    2    3    3    0    0 -0.19853836389E+03  0.11856298866E+03 -0.13779890926E+03  0.28080384174E+03  0.79922424421E+02 0.  0.
       -6    2    1    2    0  501  0.21542370204E+03 -0.92010521524E+02 -0.80608450631E+03  0.85691256106E+03  0.17220220243E+03 0.  0.
      -24    2    5    5    0    0  0.38306390333E+02 -0.35592519102E+02 -0.37879345515E+03  0.39091549507E+03  0.81217212906E+02 0.  0.
        5    1    3    3  502    0 -0.16885338148E+02 -0.26552467137E+02  0.14331567957E+02  0.34894584043E+02  0.47000000000E+01 0. -1.
      -11    1    4    4    0    0 -0.55418409388E+02  0.64855370335E+02 -0.19494824933E+02  0.87506956063E+02  0.00000000000E+00 0.  1.
       12    1    4    4    0    0 -0.14311995450E+03  0.53707618326E+02 -0.11830408433E+03  0.19329688568E+03  0.00000000000E+00 0. -1.
       -5    1    5    5    0  501  0.17711731170E+03 -0.56418002422E+02 -0.42729105116E+03  0.46599706599E+03  0.47000000000E+01 0.  1.
        3    1    6    6  503    0 -0.46524916345E+01 -0.27517742599E+02 -0.37035279604E+02  0.46373308826E+02  0.00000000000E+00 0. -1.
       -4    1    6    6    0  503  0.42958881968E+02 -0.80747765032E+01 -0.34175817554E+03  0.34454218625E+03  0.00000000000E+00 0.  1.
</event>
<event>
12   0  0.1523332E-01  0.2795158E+03  0.7957747E-01  0.1103864E+00
       21   -1    0    0  501  503  0.00000000000E+00  0.00000000000E+00  0.35531328998E+03  0.35531328998E+03  0.00000000000E+00 0. -1.
       21   -1    0    0  503  504  0.00000000000E+00  0.00000000000E+00 -0.26768425844E+03  0.26768425844E+03  0.00000000000E+00 0.  1.
        6    2    1    2  501    0 -0.17877347549E+03  0.12685839683E+03 -0.88047971633E+02  0.29305549931E+03  0.17342454261E+03 0.  0.
       24    2    3    3    0    0 -0.71545192121E+02  0.13249393442E+03 -0.67395402488E+02  0.18361015838E+03  0.80605166144E+02 0.  0.
       -6    2    1    2    0  504  0.17877347549E+03 -0.12685839683E+03  0.17567700318E+03  0.32994204911E+03  0.17305010241E+03 0.  0.
      -24    2    5    5    0    0  0.15238761237E+03 -0.17946450206E+02  0.13077340426E+03  0.20912628406E+03  0.55570315324E+02 0.  0.
        5    1    3    3  501    0 -0.10722828337E+03 -0.56355375961E+01 -0.20652569145E+02  0.10944534093E+03  0.47000000000E+01 0. -1.
        2    1    4    4  502    0 -0.13940101571E+02  0.52183213684E+02  0.13746108702E+02  0.55734816109E+02  0.00000000000E+00 0. -1.
       -1    1    4    4    0  502 -0.57605090550E+02  0.80310720739E+02 -0.81141511190E+02  0.12787534227E+03  0.00000000000E+00 0.  1.
       -5    1    5    5    0  504  0.26385863120E+02 -0.10891194662E+03  0.44903598927E+02  0.12081576506E+03  0.47000000000E+01 0.  1.
       11    1    6    6    0    0  0.12322838141E+03 -0.27941283014E+02  0.12505233286E+03  0.17777523797E+03  0.00000000000E+00 0. -1.
      -12    1    6    6    0    0  0.29159230957E+02  0.99948328077E+01  0.57210713940E+01  0.31351046087E+02  0.00000000000E+00 0.  1.
</event>
<event>
12   0  0.1523332E-01  0.1967691E+03  0.7957747E-01  0.1158646E+00
       21   -1    0    0  504  503  0.00000000000E+00  0.00000000000E+00  0.40446960769E+03  0.40446960769E+03  0.00000000000E+00 0. -1.
       21   -1    0    0  501  504  0.00000000000E+00  0.00000000000E+00 -0.11150457138E+03  0.11150457138E+03  0.00000000000E+00 0. -1.
        6    2    1    2  501    0 -0.80756560946E+02  0.17809041776E+02  0.45068935614E+02  0.20186449342E+03  0.17854769850E+03 0.  0.
       24    2    3    3    0    0  0.12164680108E+02 -0.16762825561E+02  0.56037926916E+02  0.10200469259E+03  0.82678511690E+02 0.  0.
       -6    2    1    2    0  503  0.80756560946E+02 -0.17809041776E+02  0.24789610070E+03  0.31410968565E+03  0.17428033100E+03 0.  0.
      -24    2    5    5    0    0  0.31967606001E+01 -0.16977037407E+02  0.21336412243E+03  0.22907579603E+03  0.81566123541E+02 0.  0.
        5    1    3    3  501    0 -0.92921241054E+02  0.34571867337E+02 -0.10968991303E+02  0.99859800823E+02  0.47000000000E+01 0. -1.
        4    1    4    4  502    0 -0.11371323800E+02 -0.34766429405E+02 -0.22174308701E+01  0.36645990479E+02  0.00000000000E+00 0. -1.
       -3    1    4    4    0  502  0.23536003908E+02  0.18003603844E+02  0.58255357787E+02  0.65358702115E+02  0.00000000000E+00 0.  1.
       -5    1    5    5    0  503  0.77559800346E+02 -0.83200436904E+00  0.34531978271E+02  0.85033889622E+02  0.47000000000E+01 0.  1.
       11    1    6    6    0    0  0.37491839945E+02 -0.25321736700E+02  0.14839275036E+03  0.15513618783E+03  0.00000000000E+00 0. -1.
      -12    1    6    6    0    0 -0.34295079345E+02  0.83446992939E+01  0.64971372061E+02  0.73939608203E+02  0.00000000000E+00 0.  1.
</event>
<event>
12   0  0.1523332E-01  0.1967318E+03  0.7957747E-01  0.1158677E+00
       21   -1    0    0  504  503  0.00000000000E+00  0.00000000000E+00  0.29133221037E+03  0.29133221037E+03  0.00000000000E+00 0. -1.
       21   -1    0    0  501  504  0.00000000000E+00  0.00000000000E+00 -0.18257667281E+03  0.18257667281E+03  0.00000000000E+00 0. -1.
        6    2    1    2  501    0 -0.66648324253E+02 -0.65063798225E+02 -0.69334399398E+02  0.20854228382E+03  0.17322623425E+03 0.  0.
       24    2    3    3    0    0 -0.60706375284E+02 -0.45026078509E+02  0.21098365268E+02  0.11560686595E+03  0.84895198284E+02 0.  0.
       -6    2    1    2    0  503  0.66648324253E+02  0.65063798225E+02  0.17808993696E+03  0.26536659937E+03  0.17328620675E+03 0.  0.
      -24    2    5    5    0    0  0.80437937903E+02  0.39456342327E+02  0.63084215191E+02  0.14664717686E+03  0.97461333206E+02 0.  0.
        5    1    3    3  501    0 -0.59419489687E+01 -0.20037719716E+02 -0.90432764665E+02  0.92935417866E+02  0.47000000000E+01 0. -1.
      -11    1    4    4    0    0 -0.69909987790E+02 -0.47635164232E+02 -0.80026166789E+01  0.84973861499E+02  0.00000000000E+00 0.  1.
       12    1    4    4    0    0  0.92036125057E+01  0.26090857229E+01  0.29100981947E+02  0.30633004451E+02  0.00000000000E+00 0. -1.
       -5    1    5    5    0  503 -0.13789613649E+02  0.25607455898E+02  0.11500572176E+03  0.11871942251E+03  0.47000000000E+01 0.  1.
        1    1    6    6  502    0  0.68621226361E+02 -0.17847497870E+02  0.49808578598E+02  0.86650449448E+02  0.00000000000E+00 0. -1.
       -2    1    6    6    0  502  0.11816711541E+02  0.57303840197E+02  0.13275636593E+02  0.59996727410E+02  0.00000000000E+00 0.  1.
</event>
<event>
12   0  0.1523332E-01  0.2294874E+03  0.7957747E-01  0.1133986E+00
        2   -1    0    0  502    0  0.00000000000E+00  0.00000000000E+00  0.18991196454E+04  0.18991196454E+04  0.00000000000E+00 0.  1.
       -2   -1    0    0    0  501  0.00000000000E+00  0.00000000000E+00 -0.27776223545E+02  0.27776223545E+02  0.00000000000E+00 0. -1.
        6    2    1    2  502    0  0.14183332939E+03 -0.62070190767E+02  0.89006933767E+03  0.91872165638E+03  0.16690312796E+03 0.  0.
       24    2    3    3    0    0  0.92312334871E+02 -0.88854214206E+02  0.78497948934E+03  0.79940829153E+03  0.80275645883E+02 0.  0.
       -6    2    1    2    0  501 -0.14183332939E+03  0.62070190767E+02  0.98127408421E+03  0.10081742126E+04  0.17189244513E+03 0.  0.
      -24    2    5    5    0    0 -0.95999130281E+02 -0.25636093630E+02  0.65143276307E+03  0.66377538382E+03  0.79750066163E+02 0.  0.
        5    1    3    3  502    0  0.49520994522E+02  0.26784023439E+02  0.10508984833E+03  0.11931336485E+03  0.47000000000E+01 0. -1.
        4    1    4    4  503    0  0.43936661492E+02 -0.72764788385E+02  0.30164311347E+03  0.31339067082E+03  0.00000000000E+00 0. -1.
       -3    1    4    4    0  503  0.48375673379E+02 -0.16089425821E+02  0.48333637587E+03  0.48601762071E+03  0.00000000000E+00 0.  1.
       -5    1    5    5    0  501 -0.45834199111E+02  0.87706284397E+02  0.32984132114E+03  0.34439882878E+03  0.47000000000E+01 0.  1.
       11    1    6    6    0    0 -0.13101925257E+02 -0.29650949352E+02  0.79544013532E+02  0.85895805088E+02  0.00000000000E+00 0. -1.
      -12    1    6    6    0    0 -0.82897205025E+02  0.40148557225E+01  0.57188874954E+03  0.57787957874E+03  0.00000000000E+00 0.  1.
</event>
<event>
12   0  0.1523332E-01  0.1841505E+03  0.7957747E-01  0.1169605E+00
       21   -1    0    0  501  503  0.00000000000E+00  0.00000000000E+00  0.29883511268E+03  0.29883511268E+03  0.00000000000E+00 0.  1.
       21   -1    0    0  503  504  0.00000000000E+00  0.00000000000E+00 -0.11606277467E+03  0.11606277467E+03  0.00000000000E+00 0.  1.
        6    2    1    2  501    0  0.19177450136E+02  0.62384748903E+02  0.55229622671E+02  0.19089215638E+03  0.17067475695E+03 0.  0.
       24    2    3    3    0    0  0.56838358439E+02  0.44861001644E+02 -0.15061152765E+02  0.10911007495E+03  0.80218836159E+02 0.  0.
       -6    2    1    2    0  504 -0.19177450136E+02 -0.62384748903E+02  0.12754271533E+03  0.22400573096E+03  0.17219695636E+03 0.  0.
      -24    2    5    5    0    0  0.17000819698E+02 -0.76123644433E+02  0.25814232851E+02  0.11506355086E+03  0.80556868149E+02 0.  0.
        5    1    3    3  501    0 -0.37660908303E+02  0.17523747259E+02  0.70290775436E+02  0.81782081433E+02  0.47000000000E+01 0. -1.
      -11    1    4    4    0    0  0.50687436807E+02  0.37391473441E+01  0.20101535451E+02  0.54655916427E+02  0.00000000000E+00 0.  1.
       12    1    4    4    0    0  0.61509216313E+01  0.41121854300E+02 -0.35162688216E+02  0.54454158524E+02  0.00000000000E+00 0. -1.
       -5    1    5    5    0  504 -0.36178269834E+02  0.13738895530E+02  0.10172848248E+03  0.10894218011E+03  0.47000000000E+01 0.  1.
        1    1    6    6  502    0  0.36762388075E+02 -0.60369130068E+01  0.19289526808E+02  0.41952393735E+02  0.00000000000E+00 0. -1.
       -2    1    6    6    0  502 -0.19761568377E+02 -0.70086731426E+02  0.65247060438E+01  0.73111157122E+02  0.00000000000E+00 0.  1.
</event>
<event>
12   0  0.1523332E-01  0.1983556E+03  0.7957747E-01  0.1157332E+00
       21   -1    0    0  504  503  0.00000000000E+00  0.00000000000E+00  0.55131640475E+03  0.55131640475E+03  0.00000000000E+00 0. -1.
       21   -1    0    0  501  504  0.00000000000E+00  0.00000000000E+00 -0.10823901156E+03  0.10823901156E+03  0.00000000000E+00 0. -1.
        6    2    1    2  501    0  0.72642326890E+02 -0.61499357143E+02  0.28217145193E+02  0.19971417939E+03  0.17329301077E+03 0.  0.
       24    2    3    3    0    0  0.11947719281E+03 -0.45434869575E+02  0.19795426825E+02  0.14927027225E+03  0.74502538750E+02 0.  0.
       -6    2    1    2    0  503 -0.72642326890E+02  0.61499357143E+02  0.41486024799E+03  0.45984123693E+03  0.17402832881E+03 0.  0.
      -24    2    5    5    0    0 -0.46025969789E+02  0.19254131267E+02  0.83974957858E+02  0.12517684563E+03  0.78283699891E+02 0.  0.
        5    1    3    3  501    0 -0.46834865920E+02 -0.16064487568E+02  0.84217183676E+01  0.50443907133E+02  0.47000000000E+01 0. -1.
      -13    1    4    4    0    0 -0.62495005278E+01 -0.10148737726E+02  0.14237283027E+02  0.18567535170E+02  0.00000000000E+00 0.  1.
       14    1    4    4    0    0  0.12572669334E+03 -0.35286131849E+02  0.55581437981E+01  0.13070273708E+03  0.00000000000E+00 0. -1.
       -5    1    5    5    0  503 -0.26616357101E+02  0.42245225876E+02  0.33088529013E+03  0.33466439130E+03  0.47000000000E+01 0.  1.
        3    1    6    6  502    0 -0.48387646914E+02 -0.42625400149E+01  0.88648198278E+02  0.10108430481E+03  0.00000000000E+00 0. -1.
       -4    1    6    6    0  502  0.23616771255E+01  0.23516671282E+02 -0.46732404199E+01  0.24092540818E+02  0.00000000000E+00 0.  1.
</event>
<event>
12   0  0.1523332E-01  0.2040417E+03  0.7957747E-01  0.1152731E+00
       21   -1    0    0  501  503  0.00000000000E+00  0.00000000000E+00  0.73500118817E+03  0.73500118817E+03  0.00000000000E+00 0.  1.
       21   -1    0    0  503  504  0.00000000000E+00  0.00000000000E+00 -0.64416144430E+02  0.64416144430E+02  0.00000000000E+00 0. -1.
        6    2    1    2  501    0  0.10820422581E+03  0.10013102096E+01  0.47627123564E+03  0.51765346650E+03  0.17152744496E+03 0.  0.
       24    2    3    3    0    0  0.75898536506E+02  0.36914571819E+02  0.44501357333E+03  0.45992521195E+03  0.79817583774E+02 0.  0.
       -6    2    1    2    0  504 -0.10820422581E+03 -0.10013102096E+01  0.19431380810E+03  0.28176386610E+03  0.17298515288E+03 0.  0.
      -24    2    5    5    0    0 -0.10670584690E+03  0.42281379813E+02  0.17966347975E+03  0.23580346449E+03  0.10074946686E+03 0.  0.
        5    1    3    3  501    0  0.32305689302E+02 -0.35913261610E+02  0.31257662312E+02  0.57728254555E+02  0.47000000000E+01 0. -1.
      -11    1    4    4    0    0  0.62853276009E+02 -0.11960546368E+02  0.28555767520E+03  0.29263761693E+03  0.00000000000E+00 0.  1.
       12    1    4    4    0    0  0.13045260497E+02  0.48875118187E+02  0.15945589813E+03  0.16728759502E+03  0.00000000000E+00 0. -1.
       -5    1    5    5    0  504 -0.14983789074E+01 -0.43282690023E+02  0.14650328356E+02  0.45960401607E+02  0.47000000000E+01 0.  1.
        1    1    6    6  502    0 -0.32922685270E+02  0.25174179416E+02  0.67556170827E+00  0.41449956554E+02  0.00000000000E+00 0. -1.
       -2    1    6    6    0  502 -0.73783161631E+02  0.17107200397E+02  0.17898791804E+03  0.19435350794E+03  0.00000000000E+00 0.  1.
</event>
<event>
12   0  0.1523332E-01  0.1878894E+03  0.7957747E-01  0.1166260E+00
       21   -1    0    0  504  503  0.00000000000E+00  0.00000000000E+00  0.12002043923E+03  0.12002043923E+03  0.00000000000E+00 0.  1.
       21   -1    0    0  501  504  0.00000000000E+00  0.00000000000E+00 -0.44235679460E+03  0.44235679460E+03  0.00000000000E+00 0.  1.
        6    2    1    2  501    0  0.13315497368E+02  0.72489712782E+02 -0.32410856737E+03  0.37447950493E+03  0.17250065286E+03 0.  0.
       24    2    3    3    0    0 -0.24838482984E+02  0.29075985826E+02 -0.29885627957E+03  0.31123200740E+03  0.78025145948E+02 0.  0.
       -6    2    1    2    0  503 -0.13315497368E+02 -0.72489712782E+02  0.17722120079E+01  0.18789772891E+03  0.17283042227E+03 0.  0.
      -24    2    5    5    0    0  0.26798955464E+02 -0.57822215562E+02  0.58867164182E+02  0.11643985065E+03  0.77661465187E+02 0.  0.
        5    1    3    3  501    0  0.38153980352E+02  0.43413726955E+02 -0.25252287803E+02  0.63247497532E+02  0.47000000000E+01 0. -1.
        2    1    4    4  502    0 -0.48114263428E+02  0.28753954448E+02 -0.25969120290E+03  0.26567140062E+03  0.00000000000E+00 0. -1.
       -1    1    4    4    0  502  0.23275780444E+02  0.32203137794E+00 -0.39165076668E+02  0.45560606777E+02  0.00000000000E+00 0.  1.
       -5    1    5    5    0  503 -0.40114452832E+02 -0.14667497220E+02 -0.57094952174E+02  0.71457878253E+02  0.47000000000E+01 0.  1.
       13    1    6    6    0    0  0.41672141552E+02 -0.34480941661E+01  0.13069681820E+02  0.43809511727E+02  0.00000000000E+00 0. -1.
      -14    1    6    6    0    0 -0.14873186088E+02 -0.54374121396E+02  0.45797482361E+02  0.72630338927E+02  0.00000000000E+00 0.  1.
</event>
<event>
12   0  0.1523332E-01  0.1913938E+03  0.7957747E-01  0.1163201E+00
       21   -1    0    0  504  503  0.00000000000E+00  0.00000000000E+00  0.68144691874E+02  0.68144691874E+02  0.00000000000E+00 0.  1.
       21   -1    0    0  501  504  0.00000000000E+00  0.00000000000E+00 -0.54560974605E+03  0.54560974605E+03  0.00000000000E+00 0.  1.
        6    2    1    2  501    0  0.33983284059E+02 -0.71127303317E+02 -0.29289194094E+03  0.34786196297E+03  0.17031822962E+03 0.  0.
       24    2    3    3    0    0 -0.34727634273E+02 -0.70905045601E+02 -0.13869240113E+03  0.17898085753E+03  0.81024879871E+02 0.  0.
       -6    2    1    2    0  503 -0.33983284059E+02  0.71127303317E+02 -0.18457311324E+03  0.26589247496E+03  0.17440647131E+03 0.  0.
      -24    2    5    5    0    0  0.19113185927E+02  0.76472980401E+02 -0.18009926665E+03  0.21213452958E+03  0.79698696259E+02 0.  0.
        5    1    3    3  501    0  0.68710918332E+02 -0.22225771544E+00 -0.15419953980E+03  0.16888110543E+03  0.47000000000E+01 0. -1.
      -11    1    4    4    0    0 -0.17305035380E+02 -0.44652092527E+02 -0.13947073648E+03  0.14746307996E+03  0.00000000000E+00 0.  1.
       12    1    4    4    0    0 -0.17422598893E+02 -0.26252953074E+02  0.77833535051E+00  0.31517777574E+02  0.00000000000E+00 0. -1.
       -5    1    5    5    0  503 -0.53096469986E+02 -0.53456770841E+01 -0.44738465988E+01  0.53757945383E+02  0.47000000000E+01 0.  1.
        1    1    6    6  502    0  0.19224215366E+02 -0.96771399676E+01 -0.16077748403E+02  0.26864688498E+02  0.00000000000E+00 0. -1.
       -2    1    6    6    0  502 -0.11102943964E+00  0.86150120368E+02 -0.16402151824E+03  0.18526984108E+03  0.00000000000E+00 0.  1.
</event>
<event>
12   0  0.1523332E-01  0.2054321E+03  0.7957747E-01  0.1151631E+00
       21   -1    0    0  501  503  0.00000000000E+00  0.00000000000E+00  0.52617292311E+03  0.52617292311E+03  0.00000000000E+00 0.  1.
       21   -1    0    0  503  504  0.00000000000E+00  0.00000000000E+00 -0.29691866009E+03  0.29691866009E+03  0.00000000000E+00 0.  1.
        6    2    1    2  501    0  0.51052158993E+02  0.95103620860E+02  0.46677309400E+03  0.50997986376E+03  0.17478935472E+03 0.  0.
       24    2    3    3    0    0  0.90372419375E+02  0.22751582832E+02  0.29024724573E+03  0.31513539915E+03  0.79887717689E+02 0.  0.
       -6    2    1    2    0  504 -0.51052158993E+02 -0.95103620860E+02 -0.23751883098E+03  0.31311171943E+03  0.17312634731E+03 0.  0.
      -24    2    5    5    0    0 -0.74676210731E+02 -0.12387456752E+03 -0.19745435856E+03  0.25821986992E+03  0.82266837661E+02 0.  0.
        5    1    3    3  501    0 -0.39320260381E+02  0.72352038028E+02  0.17652584828E+03  0.19484446462E+03  0.47000000000E+01 0. -1.
      -11    1    4    4    0    0  0.35327568774E+02  0.46951404751E+02  0.10435227387E+03  0.11975754083E+03  0.00000000000E+00 0.  1.
       12    1    4    4    0    0  0.55044850601E+02 -0.24199821920E+02  0.18589497186E+03  0.19537785832E+03  0.00000000000E+00 0. -1.
       -5    1    5    5    0  504  0.23624051738E+02  0.28770946657E+02 -0.40064472422E+02  0.54891849509E+02  0.47000000000E+01 0.  1.
        1    1    6    6  502    0 -0.12322463789E+02 -0.47383306672E+02 -0.15722479812E+02  0.51421952865E+02  0.00000000000E+00 0. -1.
       -2    1    6    6    0  502 -0.62353746942E+02 -0.76491260844E+02 -0.18173187875E+03  0.20679791705E+03  0.00000000000E+00 0.  1.
</event>
<event>
12   0  0.1523332E-01  0.2644276E+03  0.7957747E-01  0.1112177E+00
       21   -1    0    0  504  503  0.00000000000E+00  0.00000000000E+00  0.16790853897E+03  0.16790853897E+03  0.00000000000E+00 0.  1.
       21   -1    0    0  501  504  0.00000000000E+00  0.00000000000E+00 -0.42854940019E+03  0.42854940019E+03  0.00000000000E+00 0. -1.
        6    2    1    2  501    0  0.19209352688E+03  0.54188414485E+02 -0.18313649435E+03  0.32090600490E+03  0.17206214308E+03 0.  0.
       24    2    3    3    0    0  0.39353690465E+02  0.22764426260E+02 -0.12332768482E+03  0.15382486185E+03  0.79908937068E+02 0.  0.
       -6    2    1    2    0  503 -0.19209352688E+03 -0.54188414485E+02 -0.77504366866E+02  0.27555193426E+03  0.17345210940E+03 0.  0.
      -24    2    5    5    0    0 -0.20542810357E+03 -0.81093227566E+02 -0.73882314575E+02  0.24494328899E+03  0.75906528862E+02 0.  0.
        5    1    3    3  501    0  0.15273983642E+03  0.31423988225E+02 -0.59808809529E+02  0.16708114305E+03  0.47000000000E+01 0. -1.
        4    1    4    4  502    0  0.42376856895E+01  0.32298563221E+02 -0.11056552637E+03  0.11526443852E+03  0.00000000000E+00 0. -1.
       -3    1    4    4    0  502  0.35116004775E+02 -0.95341369613E+01 -0.12762158453E+02  0.38560423330E+02  0.00000000000E+00 0.  1.
       -5    1    5    5    0  503  0.13334576683E+02  0.26904813081E+02 -0.36220522915E+01  0.30608645266E+02  0.47000000000E+01 0.  1.
       13    1    6    6    0    0 -0.63276471121E+02 -0.20435637681E+02 -0.60353092860E+02  0.89799904804E+02  0.00000000000E+00 0. -1.
      -14    1    6    6    0    0 -0.14215163245E+03 -0.60657589885E+02 -0.13529221715E+02  0.15514338419E+03  0.00000000000E+00 0.  1.
</event>
<event>
12   0  0.1523332E-01  0.2211102E+03  0.7957747E-01  0.1139851E+00
       21   -1    0    0  501  503  0.00000000000E+00  0.00000000000E+00  0.27276999948E+03  0.27276999948E+03  0.00000000000E+00 0.  1.
       21   -1    0    0  503  504  0.00000000000E+00  0.00000000000E+00 -0.17905952883E+03  0.17905952883E+03  0.00000000000E+00 0. -1.
        6    2    1    2  501    0 -0.11005190374E+03 -0.78159946683E+02  0.73573272908E+02  0.22980421679E+03  0.17081145391E+03 0.  0.
       24    2    3    3    0    0 -0.33497096680E+02  0.17846758122E+02  0.10725852084E+02  0.91783152617E+02  0.82876661009E+02 0.  0.
       -6    2    1    2    0  504  0.11005190374E+03  0.78159946683E+02  0.20137197744E+02  0.22202531152E+03  0.17512662116E+03 0.  0.
      -24    2    5    5    0    0  0.14327628257E+03  0.84998499643E+02  0.62417907803E+01  0.18506861402E+03  0.80365377201E+02 0.  0.
        5    1    3    3  501    0 -0.76554807058E+02 -0.96006704805E+02  0.62847420824E+02  0.13802106417E+03  0.47000000000E+01 0. -1.
      -11    1    4    4    0    0  0.27898613446E+02  0.62576360912E+01  0.15581379217E+01  0.28634217912E+02  0.00000000000E+00 0.  1.
       12    1    4    4    0    0 -0.61395710127E+02  0.11589122031E+02  0.91677141627E+01  0.63148934705E+02  0.00000000000E+00 0. -1.
       -5    1    5    5    0  504 -0.33224378832E+02 -0.68385529600E+01  0.13895406963E+02  0.36956697499E+02  0.47000000000E+01 0.  1.
        3    1    6    6  502    0  0.79266969556E+02  0.90965185078E+02  0.53784060680E+01  0.12077601008E+03  0.00000000000E+00 0. -1.
       -4    1    6    6    0  502  0.64009313015E+02 -0.59666854355E+01  0.86338471229E+00  0.64292603936E+02  0.00000000000E+00 0.  1.
</event>
<event>
12   0  0.1523332E-01  0.3099700E+03  0.7957747E-01  0.1088699E+00
       21   -1    0    0  504  503  0.00000000000E+00  0.00000000000E+00  0.61953457234E+03  0.61953457234E+03  0.00000000000E+00 0.  1.
       21   -1    0    0  501  504  0.00000000000E+00  0.00000000000E+00 -0.17222899777E+03  0.17222899777E+03  0.00000000000E+00 0. -1.
        6    2    1    2  501    0 -0.14762871298E+03  0.20948050903E+03  0.97610852272E+02  0.32446516662E+03  0.17341696950E+03 0.  0.
       24    2    3    3    0    0 -0.71305053658E+02  0.72388953269E+02  0.10527443890E+03  0.16730214236E+03  0.81134013351E+02 0.  0.
       -6    2    1    2    0  503  0.14762871298E+03 -0.20948050903E+03  0.34969472230E+03  0.46729840349E+03  0.17437052085E+03 0.  0.
      -24    2    5    5    0    0  0.11756984346E+02 -0.12561503348E+03  0.15501534777E+03  0.21547169026E+03  0.80504210705E+02 0.  0.
        5    1    3    3  501    0 -0.76323659322E+02  0.13709155576E+03 -0.76635866246E+01  0.15716302425E+03  0.47000000000E+01 0. -1.
        4    1    4    4  502    0 -0.41875629523E+02 -0.93358145921E+01  0.29880455237E+02  0.52283528833E+02  0.00000000000E+00 0. -1.
       -3    1    4    4    0  502 -0.29429424135E+02  0.81724767861E+02  0.75393983659E+02  0.11501861353E+03  0.00000000000E+00 0.  1.
       -5    1    5    5    0  503  0.13587172863E+03 -0.83865475551E+02  0.19467937453E+03  0.25182671323E+03  0.47000000000E+01 0.  1.
       13    1    6    6    0    0  0.49007057465E+01 -0.21304888246E+02 -0.67409794607E+01  0.22876974977E+02  0.00000000000E+00 0. -1.
      -14    1    6    6    0    0  0.68562785994E+01 -0.10431014523E+03  0.16175632723E+03  0.19259471528E+03  0.00000000000E+00 0.  1.
</event>
<event>
12   0  0.1523332E-01  0.2310634E+03  0.7957747E-01  0.1132913E+00
       21   -1    0    0  501  503  0.00000000000E+00  0.00000000000E+00  0.40516503179E+03  0.40516503179E+03  0.00000000000E+00 0. -1.
       21   -1    0    0  503  504  0.00000000000E+00  0.00000000000E+00 -0.13136938398E+03  0.13136938398E+03  0.00000000000E+00 0. -1.
        6    2    1    2  501    0 -0.86427579304E+02  0.12389344622E+03  0.15195989757E+03  0.27531753737E+03  0.17288326534E+03 0.  0.
       24    2    3    3    0    0  0.13386935513E+01  0.24152031313E+00  0.52981610464E+02  0.94178064174E+02  0.77849895900E+02 0.  0.
       -6    2    1    2    0  504  0.86427579304E+02 -0.12389344622E+03  0.12183575024E+03  0.26121687839E+03  0.17484563202E+03 0.  0.
      -24    2    5    5    0    0  0.96863782623E+02 -0.14545482846E+03  0.71977335912E+02  0.20570328525E+03  0.81199785543E+02 0.  0.
        5    1    3    3  501    0 -0.87766272855E+02  0.12365192591E+03  0.98978287110E+02  0.18113947320E+03  0.47000000000E+01 0. -1.
      -11    1    4    4    0    0 -0.30392918187E+02 -0.13364598670E+02  0.28715845550E+01  0.33325485314E+02  0.00000000000E+00 0.  1.
       12    1    4    4    0    0  0.31731611739E+02  0.13606118983E+02  0.50110025909E+02  0.60852578860E+02  0.00000000000E+00 0. -1.
       -5    1    5    5    0  504 -0.10436203319E+02  0.21561382237E+02  0.49858414323E+02  0.55513593133E+02  0.47000000000E+01 0.  1.
        1    1    6    6  502    0  0.20448024500E+02 -0.97395535742E+02  0.55471148152E+02  0.11393445645E+03  0.00000000000E+00 0. -1.
       -2    1    6    6    0  502  0.76415758123E+02 -0.48059292719E+02  0.16506187760E+02  0.91768828806E+02  0.00000000000E+00 0.  1.
</event>
<event>
12   0  0.1523332E-01  0.1780895E+03  0.7957747E-01  0.1175219E+00
       21   -1    0    0  504  503  0.00000000000E+00  0.00000000000E+00  0.14924760217E+03  0.14924760217E+03  0.00000000000E+00 0.  1.
       21   -1    0    0  501  504  0.00000000000E+00  0.00000000000E+00 -0.28063952321E+03  0.28063952321E+03  0.00000000000E+00 0.  1.
        6    2    1    2  501    0  0.27406616776E+01 -0.37361203677E+02 -0.17231479825E+03  0.24715635151E+03  0.17317765916E+03 0.  0.
       24    2    3    3    0    0 -0.23652602280E+02 -0.12445231875E+02 -0.18832928976E+03  0.20720683373E+03  0.82173117092E+02 0.  0.
       -6    2    1    2    0  503 -0.27406616776E+01  0.37361203677E+02  0.40922877212E+02  0.18273077387E+03  0.17410480485E+03 0.  0.
      -24    2    5    5    0    0 -0.27895965282E+02  0.18550124160E+02  0.89098374419E+02  0.12502796161E+03  0.81062808204E+02 0.  0.
        5    1    3    3  501    0  0.26393263958E+02 -0.24915971801E+02  0.16014491505E+02  0.39949517786E+02  0.47000000000E+01 0. -1.
        4    1    4    4  502    0  0.98821393540E+01  0.21287798466E+02 -0.15928109245E+02  0.28364268118E+02  0.00000000000E+00 0. -1.
       -3    1    4    4    0  502 -0.33534741634E+02 -0.33733030341E+02 -0.17240118051E+03  0.17884256561E+03  0.00000000000E+00 0.  1.
       -5    1    5    5    0  503  0.25155303604E+02  0.18811079517E+02 -0.48175497207E+02  0.57702812264E+02  0.47000000000E+01 0.  1.
       11    1    6    6    0    0 -0.39093123837E+01  0.13774582899E+02 -0.13424931231E+02  0.19627802626E+02  0.00000000000E+00 0. -1.
      -12    1    6    6    0    0 -0.23986652898E+02  0.47755412606E+01  0.10252330565E+03  0.10540015898E+03  0.00000000000E+00 0.  1.
</event>
<event>
12   0  0.1523332E-01  0.1833202E+03  0.7957747E-01  0.1170360E+00
       21   -1    0    0  501  503  0.00000000000E+00  0.00000000000E+00  0.60185912120E+03  0.60185912120E+03  0.00000000000E+00 0. -1.
       21   -1    0    0  503  504  0.00000000000E+00  0.00000000000E+00 -0.10916415719E+03  0.10916415719E+03  0.00000000000E+00 0. -1.
        6    2    1    2  501    0  0.58108692338E+02 -0.10666187883E+02  0.49490766172E+03  0.52768971425E+03  0.17329873979E+03 0.  0.
       24    2    3    3    0    0  0.92012914454E+02  0.31222408802E+02  0.30906657864E+03  0.33413571929E+03  0.81751535949E+02 0.  0.
       -6    2    1    2    0  504 -0.58108692338E+02  0.10666187883E+02 -0.22126977032E+01  0.18333356413E+03  0.17353936734E+03 0.  0.
      -24    2    5    5    0    0 -0.45966053490E+02 -0.56874952210E+02  0.19749974292E+02  0.11112762086E+03  0.81312043207E+02 0.  0.
        5    1    3    3  501    0 -0.33904222116E+02 -0.41888596685E+02  0.18584108308E+03  0.19355399497E+03  0.47000000000E+01 0. -1.
      -13    1    4    4    0    0 -0.13322210940E+02 -0.55866472443E+01  0.24040354034E+02  0.28046934838E+02  0.00000000000E+00 0.  1.
       14    1    4    4    0    0  0.10533512539E+03  0.36809056046E+02  0.28502622461E+03  0.30608878445E+03  0.00000000000E+00 0. -1.
       -5    1    5    5    0  504 -0.12142638848E+02  0.67541140093E+02 -0.21962671995E+02  0.72205943276E+02  0.47000000000E+01 0.  1.
        1    1    6    6  502    0 -0.26955176342E+02 -0.38008175878E+02  0.51591732597E+02  0.69519132889E+02  0.00000000000E+00 0. -1.
       -2    1    6    6    0  502 -0.19010877148E+02 -0.18866776331E+02 -0.31841758305E+02  0.41608487968E+02  0.00000000000E+00 0.  1.
</event>
<event>
12   0  0.1523332E-01  0.2487837E+03  0.7957747E-01  0.1121458E+00
       21   -1    0    0  501  503  0.00000000000E+00  0.00000000000E+00  0.41758029215E+03  0.41758029215E+03  0.00000000000E+00 0. -1.
       21   -1    0    0  503  504  0.00000000000E+00  0.00000000000E+00 -0.25584945901E+03  0.25584945901E+03  0.00000000000E+00 0.  1.
        6    2    1    2  501    0 -0.17036723739E+03 -0.41897318460E+02  0.30062856099E+03  0.39021897342E+03  0.17638858994E+03 0.  0.
       24    2    3    3    0    0 -0.15064953784E+03 -0.66269503427E+02  0.30706940640E+03  0.35787139908E+03  0.81813126067E+02 0.  0.
       -6    2    1    2    0  504  0.17036723739E+03  0.41897318460E+02 -0.13889772786E+03  0.28321077774E+03  0.17359546352E+03 0.  0.
      -24    2    5    5    0    0  0.19494077651E+03  0.27395253290E+02 -0.14439471317E+03  0.25377482070E+03  0.69277847693E+02 0.  0.
        5    1    3    3  501    0 -0.19717699547E+02  0.24372184967E+02 -0.64408454117E+01  0.32347574331E+02  0.47000000000E+01 0. -1.
        4    1    4    4  502    0 -0.80144383425E+02 -0.14259330044E+02  0.78505744608E+02  0.11309112531E+03  0.00000000000E+00 0. -1.
       -3    1    4    4    0  502 -0.70505154420E+02 -0.52010173383E+02  0.22856366179E+03  0.24478027377E+03  0.00000000000E+00 0.  1.
       -5    1    5    5    0  504 -0.24573539123E+02  0.14502065170E+02  0.54969853119E+01  0.29435957038E+02  0.47000000000E+01 0.  1.
       11    1    6    6    0    0  0.96042938420E+02 -0.14042769760E+02 -0.94638038644E+02  0.13556475855E+03  0.00000000000E+00 0. -1.
      -12    1    6    6    0    0  0.98897838094E+02  0.41438023050E+02 -0.49756674525E+02  0.11821006215E+03  0.00000000000E+00 0.  1.
</event>
<event>
12   0  0.1523332E-01  0.2440376E+03  0.7957747E-01  0.1124422E+00
       21   -1    0    0  501  503  0.00000000000E+00  0.00000000000E+00  0.19044428022E+03  0.19044428022E+03  0.00000000000E+00 0.  1.
       21   -1    0    0  503  504  0.00000000000E+00  0.00000000000E+00 -0.31297081505E+03  0.31297081505E+03  0.00000000000E+00 0. -1.
        6    2    1    2  501    0 -0.83235077195E+02  0.15103659425E+03 -0.74511740111E+02  0.25469888322E+03  0.17198660070E+03 0.  0.
       24    2    3    3    0    0  0.12380531751E+02  0.25060556564E+02 -0.35002814520E+02  0.91618069058E+02  0.79920989057E+02 0.  0.
       -6    2    1    2    0  504  0.83235077195E+02 -0.15103659425E+03 -0.48014794721E+02  0.24871621206E+03  0.17266789728E+03 0.  0.
      -24    2    5    5    0    0 -0.43000458477E+01 -0.15783021342E+02 -0.16878804355E+02  0.84559376542E+02  0.81226842655E+02 0.  0.
        5    1    3    3  501    0 -0.95615608946E+02  0.12597603769E+03 -0.39508925591E+02  0.16308081416E+03  0.47000000000E+01 0. -1.
        4    1    4    4  502    0  0.36529227695E+02  0.14116850888E+02 -0.48116695031E+02  0.62039393095E+02  0.00000000000E+00 0. -1.
       -3    1    4    4    0  502 -0.24148695943E+02  0.10943705676E+02  0.13113880511E+02  0.29578675963E+02  0.00000000000E+00 0.  1.
       -5    1    5    5    0  504  0.87535123042E+02 -0.13525357291E+03 -0.31135990367E+02  0.16415683552E+03  0.47000000000E+01 0.  1.
       11    1    6    6    0    0 -0.23680612045E+02 -0.38933637199E+02 -0.26693291418E+02  0.52812226796E+02  0.00000000000E+00 0. -1.
      -12    1    6    6    0    0  0.19380566197E+02  0.23150615857E+02  0.98144870629E+01  0.31747149746E+02  0.00000000000E+00 0.  1.
</event>
<event>
12   0  0.1523332E-01  0.1980671E+03  0.7957747E-01  0.1157570E+00
       21   -1    0    0  504  503  0.00000000000E+00  0.00000000000E+00  0.55095617389E+03  0.55095617389E+03  0.00000000000E+00 0.  1.
       21   -1    0    0  501  504  0.00000000000E+00  0.00000000000E+00 -0.94805802947E+02  0.94805802947E+02  0.00000000000E+00 0.  1.
        6    2    1    2  501    0 -0.94479794679E+02 -0.16652294009E+02  0.66956910695E+02  0.20907848458E+03  0.17328258518E+03 0.  0.
       24    2    3    3    0    0 -0.42774170738E+01  0.42860623389E+02  0.28972625798E+02  0.94434897052E+02  0.78887308240E+02 0.  0.
       -6    2    1    2    0  503  0.94479794679E+02  0.16652294009E+02  0.38919346025E+03  0.43668349226E+03  0.17325470386E+03 0.  0.
      -24    2    5    5    0    0  0.55384728347E+02 -0.54853036053E+02  0.17802346508E+03  0.21028496466E+03  0.80318668714E+02 0.  0.
        5    1    3    3  501    0 -0.90202377605E+02 -0.59512917398E+02  0.37984284897E+02  0.11464358753E+03  0.47000000000E+01 0. -1.
      -13    1    4    4    0    0 -0.12897081938E+02 -0.86739571166E+01 -0.18274763130E+02  0.23990398539E+02  0.00000000000E+00 0.  1.
       14    1    4    4    0    0  0.86196648646E+01  0.51534580505E+02  0.47247388928E+02  0.70444498513E+02  0.00000000000E+00 0. -1.
       -5    1    5    5    0  503  0.39095066332E+02  0.71505330062E+02  0.21116999517E+03  0.22639852760E+03  0.47000000000E+01 0.  1.
        1    1    6    6  502    0  0.32310022954E+02 -0.49701986868E+02  0.17695216932E+03  0.18661804658E+03  0.00000000000E+00 0. -1.
       -2    1    6    6    0  502  0.23074705394E+02 -0.51510491851E+01  0.10712957588E+01  0.23666918078E+02  0.00000000000E+00 0.  1.
</event>
<event>
12   0  0.1523332E-01  0.2713395E+03  0.7957747E-01  0.1108296E+00
       21   -1    0    0  504  503  0.00000000000E+00  0.00000000000E+00  0.53906249659E+03  0.53906249659E+03  0.00000000000E+00 0.  1.
       21   -1    0    0  501  504  0.00000000000E+00  0.00000000000E+00 -0.17656549134E+03  0.17656549134E+03  0.00000000000E+00 0.  1.
        6    2    1    2  501    0 -0.95832600519E+02 -0.18549078207E+03  0.10381700124E+02  0.27153800779E+03  0.17330433470E+03 0.  0.
       24    2    3    3    0    0 -0.13519193118E+03 -0.15900015169E+03  0.14691200260E+02  0.22366763910E+03  0.79078915778E+02 0.  0.
       -6    2    1    2    0  503  0.95832600519E+02  0.18549078207E+03  0.35211530513E+03  0.44408998014E+03  0.17216272767E+03 0.  0.
      -24    2    5    5    0    0  0.31159275259E+02  0.37310460231E+02  0.20356169819E+03  0.22447597577E+03  0.81173443017E+02 0.  0.
        5    1    3    3  501    0  0.39359330659E+02 -0.26490630373E+02 -0.43095001358E+01  0.47870368694E+02  0.47000000000E+01 0. -1.
        2    1    4    4  502    0 -0.15677989355E+02 -0.17001993614E+02  0.29492733648E+02  0.37479173885E+02  0.00000000000E+00 0. -1.
       -1    1    4    4    0  502 -0.11951394182E+03 -0.14199815808E+03 -0.14801533388E+02  0.18618846521E+03  0.00000000000E+00 0.  1.
       -5    1    5    5    0  503  0.64673325260E+02  0.14818032184E+03  0.14855360694E+03  0.21961400436E+03  0.47000000000E+01 0.  1.
       11    1    6    6    0    0  0.12317171286E+02 -0.15215360841E+02  0.80672896433E+01  0.21173121550E+02  0.00000000000E+00 0. -1.
      -12    1    6    6    0    0  0.18842103973E+02  0.52525821071E+02  0.19549440855E+03  0.20330285422E+03  0.00000000000E+00 0.  1.
</event>
<event>
12   0  0.1523332E-01  0.2356297E+03  0.7957747E-01  0.1129857E+00
       21   -1    0    0  501  503  0.00000000000E+00  0.00000000000E+00  0.42908550684E+03  0.42908550684E+03  0.00000000000E+00 0.  1.
       21   -1    0    0  503  504  0.00000000000E+00  0.00000000000E+00 -0.13619941046E+03  0.13619941046E+03  0.00000000000E+00 0.  1.
        6    2    1    2  501    0  0.24435193554E+02 -0.15812852357E+03  0.20986401945E+03  0.31545698143E+03  0.17282503240E+03 0.  0.
       24    2    3    3    0    0  0.71855135149E+02 -0.12748165383E+03  0.19523798543E+03  0.25694294588E+03  0.80542373760E+02 0.  0.
       -6    2    1    2    0  504 -0.24435193554E+02  0.15812852357E+03  0.83022076930E+02  0.24982793587E+03  0.17297289855E+03 0.  0.
      -24    2    5    5    0    0  0.47856897932E+02  0.10413628811E+03  0.21668856326E+02  0.14061431190E+03  0.78537864728E+02 0.  0.
        5    1    3    3  501    0 -0.47419941595E+02 -0.30646869739E+02  0.14626034020E+02  0.58514035554E+02  0.47000000000E+01 0. -1.
      -13    1    4    4    0    0  0.91070113380E+01 -0.89990487517E+02  0.81555363431E+02  0.12178876304E+03  0.00000000000E+00 0.  1.
       14    1    4    4    0    0  0.62748123811E+02 -0.37491166314E+02  0.11368262200E+03  0.13515418284E+03  0.00000000000E+00 0. -1.
       -5    1    5    5    0  504 -0.72292091486E+02  0.53992235461E+02  0.61353220604E+02  0.10921362397E+03  0.47000000000E+01 0.  1.
        1    1    6    6  502    0  0.34026810255E+01  0.23880158112E+02  0.40327343263E+02  0.46990794889E+02  0.00000000000E+00 0. -1.
       -2    1    6    6    0  502  0.44454216907E+02  0.80256129998E+02 -0.18658486937E+02  0.93623517012E+02  0.00000000000E+00 0.  1.
</event>
<event>
12   0  0.1523332E-01  0.1889455E+03  0.7957747E-01  0.1165330E+00
       21   -1    0    0  504  503  0.00000000000E+00  0.00000000000E+00  0.15309060559E+03  0.15309060559E+03  0.00000000000E+00 0.  1.
       21   -1    0    0  501  504  0.00000000000E+00  0.00000000000E+00 -0.25527638485E+03  0.25527638485E+03  0.00000000000E+00 0.  1.
        6    2    1    2  501    0 -0.13756236553E+02 -0.74041288192E+02 -0.11189119761E+03  0.21917234339E+03  0.17275858764E+03 0.  0.
       24    2    3    3    0    0  0.43056174533E+02 -0.43284766457E+02 -0.11635439971E+03  0.15424450763E+03  0.80781288868E+02 0.  0.
       -6    2    1    2    0  503  0.13756236553E+02  0.74041288192E+02  0.97054183424E+01  0.18919464706E+03  0.17328898675E+03 0.  0.
      -24    2    5    5    0    0 -0.11480359050E+02  0.42019550045E+02  0.70748964557E+02  0.11563730884E+03  0.80430901894E+02 0.  0.
        5    1    3    3  501    0 -0.56812411086E+02 -0.30756521735E+02  0.44632021035E+01  0.64927835754E+02  0.47000000000E+01 0. -1.
      -11    1    4    4    0    0  0.19502926249E+02 -0.57065488260E+02 -0.38014087914E+02  0.71287481107E+02  0.00000000000E+00 0.  1.
       12    1    4    4    0    0  0.23553248284E+02  0.13780721803E+02 -0.78340311795E+02  0.82957026527E+02  0.00000000000E+00 0. -1.
       -5    1    5    5    0  503  0.25236595603E+02  0.32021738147E+02 -0.61043546215E+02  0.73557338220E+02  0.47000000000E+01 0.  1.
        3    1    6    6  502    0  0.77914270490E+00 -0.22410707086E+02  0.54281924934E+01  0.23071890456E+02  0.00000000000E+00 0. -1.
       -4    1    6    6    0  502 -0.12259501754E+02  0.64430257131E+02  0.65320772064E+02  0.92565418382E+02  0.00000000000E+00 0.  1.
</event>
<event>
12   0  0.1523332E-01  0.2184198E+03  0.7957747E-01  0.1141795E+00
       21   -1    0    0  501  503  0.00000000000E+00  0.00000000000E+00  0.12979830472E+04  0.12979830472E+04  0.00000000000E+00 0.  1.
       21   -1    0    0  503  504  0.00000000000E+00  0.00000000000E+00 -0.39579716437E+02  0.39579716437E+02  0.00000000000E+00 0.  1.
        6    2    1    2  501    0 -0.13087290729E+03 -0.23315626671E+02  0.44965737844E+03  0.49989897645E+03  0.17330866211E+03 0.  0.
       24    2    3    3    0    0 -0.38567066040E+02 -0.67151280264E+02  0.18785908382E+03  0.21882537414E+03  0.81220662194E+02 0.  0.
       -6    2    1    2    0  504  0.13087290729E+03  0.23315626671E+02  0.80874595237E+03  0.83766378723E+03  0.17302967563E+03 0.  0.
      -24    2    5    5    0    0  0.88246368621E+02 -0.34434090289E+02  0.31586823716E+03  0.33956481738E+03  0.80983910814E+02 0.  0.
        5    1    3    3  501    0 -0.92305841254E+02  0.43835653593E+02  0.26179829461E+03  0.28107360232E+03  0.47000000000E+01 0. -1.
      -13    1    4    4    0    0 -0.13245512423E+02 -0.13589818673E+02 -0.27917992196E+01  0.19181264656E+02  0.00000000000E+00 0.  1.
       14    1    4    4    0    0 -0.25321553617E+02 -0.53561461590E+02  0.19065088304E+03  0.19964410948E+03  0.00000000000E+00 0. -1.
       -5    1    5    5    0  504  0.42626538673E+02  0.57749716960E+02  0.49287771521E+03  0.49809896985E+03  0.47000000000E+01 0.  1.
        3    1    6    6  502    0  0.17463076230E+02 -0.41708732974E+02  0.18666352664E+03  0.19206209833E+03  0.00000000000E+00 0. -1.
       -4    1    6    6    0  502  0.70783292391E+02  0.72746426848E+01  0.12920471052E+03  0.14750271905E+03  0.00000000000E+00 0.  1.
</event>
<event>
12   0  0.1523332E-01  0.1782338E+03  0.7957747E-01  0.1175082E+00
       21   -1    0    0  504  503  0.00000000000E+00  0.00000000000E+00  0.13949539019E+03  0.13949539019E+03  0.00000000000E+00 0.  1.
       21   -1    0    0  501  504  0.00000000000E+00  0.00000000000E+00 -0.30507253531E+03  0.30507253531E+03  0.00000000000E+00 0.  1.
        6    2    1    2  501    0 -0.32324416522E+02  0.35046256400E+02 -0.19553008533E+03  0.26383482360E+03  0.17059804184E+03 0.  0.
       24    2    3    3    0    0  0.32919021738E+02 -0.19745185562E+02 -0.80940718702E+02  0.12096557815E+03  0.81287986869E+02 0.  0.
       -6    2    1    2    0  503  0.32324416522E+02 -0.35046256400E+02  0.29952940214E+02  0.18073310191E+03  0.17173866049E+03 0.  0.
      -24    2    5    5    0    0  0.63650215809E+01  0.35007790102E+02  0.51266352041E+02  0.10290116026E+03  0.81819014068E+02 0.  0.
        5    1    3    3  501    0 -0.65243438260E+02  0.54791441962E+02 -0.11458936663E+03  0.14286924544E+03  0.47000000000E+01 0. -1.
        2    1    4    4  502    0 -0.42729097942E+01 -0.38830961819E+02 -0.12957598753E+02  0.41158239993E+02  0.00000000000E+00 0. -1.
       -1    1    4    4    0  502  0.37191931532E+02  0.19085776257E+02 -0.67983119949E+02  0.79807338161E+02  0.00000000000E+00 0.  1.
       -5    1    5    5    0  503  0.25959394941E+02 -0.70054046502E+02 -0.21313411827E+02  0.77831941648E+02  0.47000000000E+01 0.  1.
       13    1    6    6    0    0 -0.35446358065E+02  0.31021496395E+02  0.29718640410E+02  0.55695377963E+02  0.00000000000E+00 0. -1.
      -14    1    6    6    0    0  0.41811379646E+02  0.39862937070E+01  0.21547711631E+02  0.47205782294E+02  0.00000000000E+00 0.  1.
</event>
<event>
12   0  0.1523332E-01  0.2060725E+03  0.7957747E-01  0.1151128E+00
       21   -1    0    0  504  503  0.00000000000E+00  0.00000000000E+00  0.20404557790E+03  0.20404557790E+03  0.00000000000E+00 0. -1.
       21   -1    0    0  501  504  0.00000000000E+00  0.00000000000E+00 -0.29766599160E+03  0.29766599160E+03  0.00000000000E+00 0. -1.
        6    2    1    2  501    0  0.57694739062E+02 -0.94434099435E+02 -0.18502753817E+03  0.27694958519E+03  0.17383728254E+03 0.  0.
       24    2    3    3    0    0  0.59587574582E+02 -0.94669430796E+00 -0.51993955803E+02  0.11427352124E+03  0.82483276739E+02 0.  0.
       -6    2    1    2    0  503 -0.57694739062E+02  0.94434099435E+02  0.91407124473E+02  0.22476198431E+03  0.17296301666E+03 0.  0.
      -24    2    5    5    0    0 -0.72821721247E+02  0.12318909933E+03  0.56189708477E+02  0.17661603953E+03  0.86933220344E+02 0.  0.
        5    1    3    3  501    0 -0.18928355192E+01 -0.93487405127E+02 -0.13303358237E+03  0.16267606395E+03  0.47000000000E+01 0. -1.
        2    1    4    4  502    0  0.44277993156E+02  0.37991481906E+02 -0.40035753877E+02  0.70758426805E+02  0.00000000000E+00 0. -1.
       -1    1    4    4    0  502  0.15309581426E+02 -0.38938176214E+02 -0.11958201926E+02  0.43515094434E+02  0.00000000000E+00 0.  1.
       -5    1    5    5    0  503  0.15126982184E+02 -0.28754999899E+02  0.35217415996E+02  0.48145944779E+02  0.47000000000E+01 0.  1.
       11    1    6    6    0    0 -0.13510575403E+02  0.74706824211E+02  0.64424117396E+02  0.99569634597E+02  0.00000000000E+00 0. -1.
      -12    1    6    6    0    0 -0.59311145844E+02  0.48482275122E+02 -0.82344089193E+01  0.77046404930E+02  0.00000000000E+00 0.  1.
</event>
<event>
12   0  0.1523332E-01  0.1799243E+03  0.7957747E-01  0.1173494E+00
       21   -1    0    0  504  503  0.00000000000E+00  0.00000000000E+00  0.13641481521E+04  0.13641481521E+04  0.00000000000E+00 0. -1.
       21   -1    0    0  501  504  0.00000000000E+00  0.00000000000E+00 -0.24401367176E+02  0.24401367176E+02  0.00000000000E+00 0.  1.
        6    2    1    2  501    0 -0.42396560785E+02  0.27153353174E+02  0.54787004165E+03  0.57665790664E+03  0.17273675287E+03 0.  0.
       24    2    3    3    0    0 -0.82369083120E+01  0.81160074193E+02  0.38828925443E+03  0.40469359225E+03  0.79709185170E+02 0.  0.
       -6    2    1    2    0  503  0.42396560785E+02 -0.27153353174E+02  0.79187674323E+03  0.81189161260E+03  0.17194313358E+03 0.  0.
      -24    2    5    5    0    0 -0.17319520863E+02 -0.68924945433E+02  0.45418459335E+03  0.46639348755E+03  0.78667823654E+02 0.  0.
        5    1    3    3  501    0 -0.34159652473E+02 -0.54006721019E+02  0.15958078722E+03  0.17196431439E+03  0.47000000000E+01 0. -1.
        4    1    4    4  502    0 -0.35633142249E+02  0.76704013866E+02  0.31977094877E+03  0.33076681552E+03  0.00000000000E+00 0. -1.
       -3    1    4    4    0  502  0.27396233937E+02  0.44560603264E+01  0.68518305657E+02  0.73926776730E+02  0.00000000000E+00 0.  1.
       -5    1    5    5    0  503  0.59716081648E+02  0.41771592260E+02  0.33769214988E+03  0.34549812506E+03  0.47000000000E+01 0.  1.
       11    1    6    6    0    0  0.28280650179E+02 -0.36820318311E+02  0.26959489465E+03  0.27356340807E+03  0.00000000000E+00 0. -1.
      -12    1    6    6    0    0 -0.45600171041E+02 -0.32104627122E+02  0.18458969870E+03  0.19283007947E+03  0.00000000000E+00 0.  1.
</event>
<event>
12   0  0.1523332E-01  0.2729812E+03  0.7957747E-01  0.1107393E+00
       21   -1    0    0  501  503  0.00000000000E+00  0.00000000000E+00  0.79136183769E+03  0.79136183769E+03  0.00000000000E+00 0.  1.
       21   -1    0    0  503  504  0.00000000000E+00  0.00000000000E+00 -0.10744664462E+03  0.10744664462E+03  0.00000000000E+00 0. -1.
        6    2    1    2  501    0 -0.10128890527E+02  0.21036129937E+03  0.18223024747E+03  0.32766356967E+03  0.17262989632E+03 0.  0.
       24    2    3    3    0    0 -0.21384973507E+02  0.27175169266E+02  0.42657625496E+02  0.97041661627E+02  0.80010025383E+02 0.  0.
       -6    2    1    2    0  504  0.10128890527E+02 -0.21036129937E+03  0.50168494559E+03  0.57114491263E+03  0.17367859941E+03 0.  0.
      -24    2    5    5    0    0 -0.43465118162E+02 -0.83824733196E+02  0.31964639284E+03  0.34301349209E+03  0.81047127725E+02 0.  0.
        5    1    3    3  501    0  0.11256082980E+02  0.18318613010E+03  0.13957262198E+03  0.23062190805E+03  0.47000000000E+01 0. -1.
      -11    1    4    4    0    0 -0.84306854734E-01 -0.18135559677E+02 -0.12897530874E+02  0.22254256561E+02  0.00000000000E+00 0.  1.
       12    1    4    4    0    0 -0.21300666652E+02  0.45310728944E+02  0.55555156369E+02  0.74787405066E+02  0.00000000000E+00 0. -1.
       -5    1    5    5    0  504  0.53594008688E+02 -0.12653656617E+03  0.18203855276E+03  0.22813142054E+03  0.47000000000E+01 0.  1.
        1    1    6    6  502    0 -0.22038698869E+02 -0.61685352015E+02  0.90023803828E+02  0.11133315839E+03  0.00000000000E+00 0. -1.
       -2    1    6    6    0  502 -0.21426419293E+02 -0.22139381181E+02  0.22962258901E+03  0.23168033370E+03  0.00000000000E+00 0.  1.
</event>
<event>
12   0  0.1523332E-01  0.1897938E+03  0.7957747E-01  0.1164589E+00
       21   -1    0    0  501  503  0.00000000000E+00  0.00000000000E+00  0.19464926701E+03  0.19464926701E+03  0.00000000000E+00 0. -1.
       21   -1    0    0  503  504  0.00000000000E+00  0.00000000000E+00 -0.18423076417E+03  0.18423076417E+03  0.00000000000E+00 0. -1.
        6    2    1    2  501    0  0.75666055083E+02  0.17284168929E+02  0.79299751200E+01  0.18906991258E+03  0.17222210355E+03 0.  0.
       24    2    3    3    0    0  0.70916426126E+01 -0.25565716301E+02 -0.43295195155E+02  0.93233224516E+02  0.78192473968E+02 0.  0.
       -6    2    1    2    0  504 -0.75666055083E+02 -0.17284168929E+02  0.24885277145E+01  0.18981011860E+03  0.17319813499E+03 0.  0.
      -24    2    5    5    0    0 -0.61764280796E+02 -0.32432847847E+02 -0.61621340166E+02  0.12232006777E+03  0.79361788120E+02 0.  0.
        5    1    3    3  501    0  0.68574412470E+02  0.42849885229E+02  0.51225170275E+02  0.95836688066E+02  0.47000000000E+01 0. -1.
      -13    1    4    4    0    0 -0.27898971446E+02 -0.35225781269E+02 -0.15569812050E+02  0.47556569694E+02  0.00000000000E+00 0.  1.
       14    1    4    4    0    0  0.34990614059E+02  0.96600649683E+01 -0.27725383105E+02  0.45676654822E+02  0.00000000000E+00 0. -1.
       -5    1    5    5    0  504 -0.13901774287E+02  0.15148678918E+02  0.64109867881E+02  0.67490050830E+02  0.47000000000E+01 0.  1.
        3    1    6    6  502    0 -0.60333635748E+02  0.10647220350E+02 -0.26638189112E+02  0.66806466925E+02  0.00000000000E+00 0. -1.
       -4    1    6    6    0  502 -0.14306450480E+01 -0.43080068197E+02 -0.34983151054E+02  0.55513600845E+02  0.00000000000E+00 0.  1.
</event>
<event>
12   0  0.1523332E-01  0.2731204E+03  0.7957747E-01  0.1107317E+00
       21   -1    0    0  504  503  0.00000000000E+00  0.00000000000E+00  0.96892818894E+03  0.96892818894E+03  0.00000000000E+00 0. -1.
       21   -1    0    0  501  504  0.00000000000E+00  0.00000000000E+00 -0.10066047036E+03  0.10066047036E+03  0.00000000000E+00 0. -1.
        6    2    1    2  501    0  0.17528805851E+03 -0.11839720476E+03  0.17457977542E+03  0.32414941559E+03  0.17277425759E+03 0.  0.
       24    2    3    3    0    0  0.31037064851E+02 -0.12567790985E+02  0.21989745140E+02  0.88960084762E+02  0.79429837119E+02 0.  0.
       -6    2    1    2    0  503 -0.17528805851E+03  0.11839720476E+03  0.69368794316E+03  0.74543924372E+03  0.17243231145E+03 0.  0.
      -24    2    5    5    0    0 -0.15773154654E+03  0.15121122000E+03  0.56877072029E+03  0.61501151170E+03  0.83635838237E+02 0.  0.
        5    1    3    3  501    0  0.14425099366E+03 -0.10582941378E+03  0.15259003028E+03  0.23518933082E+03  0.47000000000E+01 0. -1.
        2    1    4    4  502    0  0.56898809030E+02 -0.15216648648E+02  0.80038830648E+01  0.59439742675E+02  0.00000000000E+00 0. -1.
       -1    1    4    4    0  502 -0.25861744180E+02  0.26488576638E+01  0.13985862075E+02  0.29520342087E+02  0.00000000000E+00 0.  1.
       -5    1    5    5    0  503 -0.17556511969E+02 -0.32814015236E+02  0.12491722287E+03  0.13042773201E+03  0.47000000000E+01 0.  1.
       11    1    6    6    0    0 -0.21578831192E+02  0.72238299166E+02  0.15640532946E+03  0.17362789207E+03  0.00000000000E+00 0. -1.
      -12    1    6    6    0    0 -0.13615271535E+03  0.78972920834E+02  0.41236539084E+03  0.44138361963E+03  0.00000000000E+00 0.  1.
</event>
<event>
12   0  0.1523332E-01  0.1866031E+03  0.7957747E-01  0.1167401E+00
       21   -1    0    0  501  503  0.00000000000E+00  0.00000000000E+00  0.34203362300E+03  0.34203362300E+03  0.00000000000E+00 0. -1.
       21   -1    0    0  503  504  0.00000000000E+00  0.00000000000E+00 -0.10084049281E+03  0.10084049281E+03  0.00000000000E+00 0.  1.
        6    2    1    2  501    0  0.57561149532E+02  0.51438417762E+01  0.11951066177E+03  0.22159313228E+03  0.17742878277E+03 0.  0.
       24    2    3    3    0    0  0.10435662311E+03 -0.32012660037E+01  0.10580909730E+03  0.17190128144E+03  0.86336160428E+02 0.  0.
       -6    2    1    2    0  504 -0.57561149532E+02 -0.51438417762E+01  0.12168246843E+03  0.22128098353E+03  0.17555314155E+03 0.  0.
      -24    2    5    5    0    0 -0.82493505745E+02 -0.12674205056E+02  0.14685542111E+03  0.18475570045E+03  0.74848782062E+02 0.  0.
        5    1    3    3  501    0 -0.46795473577E+02  0.83451077799E+01  0.13701564462E+02  0.49691850839E+02  0.47000000000E+01 0. -1.
        4    1    4    4  502    0  0.68422623473E+02  0.35023161412E+02  0.87185712686E+02  0.11623091557E+03  0.00000000000E+00 0. -1.
       -3    1    4    4    0  502  0.35933999636E+02 -0.38224427416E+02  0.18623384618E+02  0.55670365867E+02  0.00000000000E+00 0.  1.
       -5    1    5    5    0  504  0.24932356213E+02  0.75303632799E+01 -0.25172952680E+02  0.36525283081E+02  0.47000000000E+01 0.  1.
       13    1    6    6    0    0  0.76066846969E+01  0.15740921360E+02  0.19588339837E+02  0.26255310223E+02  0.00000000000E+00 0. -1.
      -14    1    6    6    0    0 -0.90100190442E+02 -0.28415126416E+02  0.12726708127E+03  0.15850039023E+03  0.00000000000E+00 0.  1.
</event>
<event>
12   0  0.1523332E-01  0.1806053E+03  0.7957747E-01  0.1172859E+00
       21   -1    0    0  501  503  0.00000000000E+00  0.00000000000E+00  0.33535955693E+03  0.33535955693E+03  0.00000000000E+00 0. -1.
       21   -1    0    0  503  504  0.00000000000E+00  0.00000000000E+00 -0.18097384519E+03  0.18097384519E+03  0.00000000000E+00 0.  1.
        6    2    1    2  501    0 -0.38334308967E+02  0.34061734023E+02  0.25279718314E+03  0.31065623968E+03  0.17312181398E+03 0.  0.
       24    2    3    3    0    0 -0.75491332507E+02  0.46393348752E+02  0.10696658457E+03  0.15958881565E+03  0.78584068204E+02 0.  0.
       -6    2    1    2    0  504  0.38334308967E+02 -0.34061734023E+02 -0.98411471398E+02  0.20567716245E+03  0.17317204301E+03 0.  0.
      -24    2    5    5    0    0 -0.21926363577E+02  0.20704909362E+02 -0.91197082568E+02  0.12379388400E+03  0.78093272150E+02 0.  0.
        5    1    3    3  501    0  0.37157023541E+02 -0.12331614729E+02  0.14583059857E+03  0.15106742402E+03  0.47000000000E+01 0. -1.
      -11    1    4    4    0    0 -0.41215309692E+01 -0.20134080540E+02  0.14379538216E+02  0.25082650100E+02  0.00000000000E+00 0.  1.
       12    1    4    4    0    0 -0.71369801538E+02  0.66527429292E+02  0.92587046352E+02  0.13450616555E+03  0.00000000000E+00 0. -1.
       -5    1    5    5    0  504  0.60260672543E+02 -0.54766643385E+02 -0.72143888303E+01  0.81883278447E+02  0.47000000000E+01 0.  1.
        1    1    6    6  502    0 -0.47005252297E+02  0.31295104738E+02 -0.62810405025E+02  0.84463153526E+02  0.00000000000E+00 0. -1.
       -2    1    6    6    0  502  0.25078888721E+02 -0.10590195376E+02 -0.28386677543E+02  0.39330730473E+02  0.00000000000E+00 0.  1.
</event>
<event>
12   0  0.1523332E-01  0.1891918E+03  0.7957747E-01  0.1165115E+00
       21   -1    0    0  501  503  0.00000000000E+00  0.00000000000E+00  0.20066246726E+03  0.20066246726E+03  0.00000000000E+00 0. -1.
       21   -1    0    0  503  504  0.00000000000E+00  0.00000000000E+00 -0.22585561151E+03  0.22585561151E+03  0.00000000000E+00 0. -1.
        6    2    1    2  501    0 -0.52532632683E+02 -0.56841859026E+02  0.89622326459E+02  0.20934590743E+03  0.17263508659E+03 0.  0.
       24    2    3    3    0    0 -0.85378169837E+02 -0.36152128867E+02  0.13047092628E+02  0.12336480089E+03  0.80325831251E+02 0.  0.
       -6    2    1    2    0  504  0.52532632683E+02  0.56841859026E+02 -0.11481547071E+03  0.21717217135E+03  0.16730357217E+03 0.  0.
      -24    2    5    5    0    0  0.66904268102E+02  0.93676205565E+02 -0.10650408307E+03  0.17649684524E+03  0.80972860213E+02 0.  0.
        5    1    3    3  501    0  0.32845537155E+02 -0.20689730160E+02  0.76575233830E+02  0.85981106536E+02  0.47000000000E+01 0. -1.
      -11    1    4    4    0    0 -0.95820518009E+02 -0.25933977571E+02  0.27300525302E+02  0.10295368641E+03  0.00000000000E+00 0.  1.
       12    1    4    4    0    0  0.10442348171E+02 -0.10218151296E+02 -0.14253432674E+02  0.20411114478E+02  0.00000000000E+00 0. -1.
       -5    1    5    5    0  504 -0.14371635420E+02 -0.36834346538E+02 -0.83113876447E+01  0.40675326110E+02  0.47000000000E+01 0.  1.
        3    1    6    6  502    0 -0.20495352419E+01  0.43336659327E+02 -0.47088245151E+01  0.43639886167E+02  0.00000000000E+00 0. -1.
       -4    1    6    6    0  502  0.68953803344E+02  0.50339546238E+02 -0.10179525855E+03  0.13285695907E+03  0.00000000000E+00 0.  1.
</event>
<event>
12   0  0.1523332E-01  0.1957192E+03  0.7957747E-01  0.1159523E+00
       -2   -1    0    0    0  501  0.00000000000E+00  0.00000000000E+00  0.41941913222E+02  0.41941913222E+02  0.00000000000E+00 0.  1.
        2   -1    0    0  502    0  0.00000000000E+00  0.00000000000E+00 -0.12007952927E+04  0.12007952927E+04  0.00000000000E+00 0. -1.
        6    2    1    2  502    0 -0.87196389963E+02 -0.23863734745E+02 -0.27662132584E+03  0.33917355372E+03  0.17420290863E+03 0.  0.
       24    2    3    3    0    0 -0.58074346876E+02  0.26311254200E+02 -0.25813125738E+03  0.27810313911E+03  0.81515017521E+02 0.  0.
       -6    2    1    2    0  501  0.87196389963E+02  0.23863734745E+02 -0.88223205361E+03  0.90356365218E+03  0.17297742297E+03 0.  0.
      -24    2    5    5    0    0  0.25241863113E+02 -0.17521660512E+02 -0.72043535950E+03  0.72537449829E+03  0.78720361462E+02 0.  0.
        5    1    3    3  502    0 -0.29122043087E+02 -0.50174988945E+02 -0.18490068458E+02  0.61070414611E+02  0.47000000000E+01 0. -1.
      -11    1    4    4    0    0 -0.37063201678E+01 -0.25151263133E+02 -0.39160219429E+02  0.46688816992E+02  0.00000000000E+00 0.  1.
       12    1    4    4    0    0 -0.54368026708E+02  0.51462517332E+02 -0.21897103795E+03  0.23141432212E+03  0.00000000000E+00 0. -1.
       -5    1    5    5    0  501  0.61954526850E+02  0.41385395257E+02 -0.16179669411E+03  0.17818915388E+03  0.47000000000E+01 0.  1.
        3    1    6    6  503    0  0.43357493668E+02  0.10725322070E+02 -0.54009348754E+03  0.54193715510E+03  0.00000000000E+00 0. -1.
       -4    1    6    6    0  503 -0.18115630555E+02 -0.28246982582E+02 -0.18034187196E+03  0.18343734320E+03  0.00000000000E+00 0.  1.
</event>
<event>
12   0  0.1523332E-01  0.2033137E+03  0.7957747E-01  0.1153311E+00
       -2   -1    0    0    0  501  0.00000000000E+00  0.00000000000E+00  0.34385285367E+02  0.34385285367E+02  0.00000000000E+00 0. -1.
        2   -1    0    0  502    0  0.00000000000E+00  0.00000000000E+00 -0.12336719670E+04  0.12336719670E+04  0.00000000000E+00 0.  1.
        6    2    1    2  502    0  0.93519229083E+02  0.49637009426E+02 -0.70211607890E+03  0.73107118093E+03  0.17403564126E+03 0.  0.
       24    2    3    3    0    0  0.12008922892E+03  0.38211447934E+02 -0.67339563891E+03  0.69004116729E+03  0.82544463085E+02 0.  0.
       -6    2    1    2    0  501 -0.93519229083E+02 -0.49637009426E+02 -0.49717060272E+03  0.53698607142E+03  0.17310619220E+03 0.  0.
      -24    2    5    5    0    0  0.96780854884E+01 -0.45676577801E+02 -0.30143703048E+03  0.31562868605E+03  0.81099747337E+02 0.  0.
        5    1    3    3  502    0 -0.26569999840E+02  0.11425561492E+02 -0.28720439988E+02  0.41030013648E+02  0.47000000000E+01 0. -1.
      -13    1    4    4    0    0  0.96331993493E+02  0.40093194699E+02 -0.33655671810E+03  0.35236024425E+03  0.00000000000E+00 0.  1.
       14    1    4    4    0    0  0.23757235430E+02 -0.18817467648E+01 -0.33683892082E+03  0.33768092304E+03  0.00000000000E+00 0. -1.
       -5    1    5    5    0  501 -0.10319731457E+03 -0.39604316248E+01 -0.19573357224E+03  0.22135738536E+03  0.47000000000E+01 0.  1.
        1    1    6    6  503    0  0.16495797130E+02  0.14042054661E+02 -0.26646962196E+02  0.34341683365E+02  0.00000000000E+00 0. -1.
       -2    1    6    6    0  503 -0.68177116418E+01 -0.59718632462E+02 -0.27479006828E+03  0.28128700269E+03  0.00000000000E+00 0.  1.
</event>
<event>
12   0  0.1523332E-01  0.2101873E+03  0.7957747E-01  0.1147940E+00
       -2   -1    0    0    0  501  0.00000000000E+00  0.00000000000E+00  0.40738172163E+03  0.40738172163E+03  0.00000000000E+00 0. -1.
        2   -1    0    0  502    0  0.00000000000E+00  0.00000000000E+00 -0.13947465159E+03  0.13947465159E+03  0.00000000000E+00 0.  1.
        6    2    1    2  502    0 -0.90024216281E+02 -0.72527289084E+02  0.58070663613E+01  0.21189721669E+03  0.17748842565E+03 0.  0.
       24    2    3    3    0    0 -0.76392094944E+02 -0.47063686661E+01  0.56640424073E+02  0.12592261442E+03  0.82404278452E+02 0.  0.
       -6    2    1    2    0  501  0.90024216281E+02  0.72527289084E+02  0.26210000368E+03  0.33495915654E+03  0.17359912858E+03 0.  0.
      -24    2    5    5    0    0  0.10926722051E+03  0.24245761587E+02  0.11709765352E+03  0.18085149722E+03  0.80425251979E+02 0.  0.
        5    1    3    3  502    0 -0.13632121338E+02 -0.67820920418E+02 -0.50833357712E+02  0.85974602266E+02  0.47000000000E+01 0. -1.
      -11    1    4    4    0    0 -0.46584160302E+02 -0.21023729155E+02 -0.91060209338E+01  0.51913397075E+02  0.00000000000E+00 0.  1.
       12    1    4    4    0    0 -0.29807934642E+02  0.16317360489E+02  0.65746445007E+02  0.74009217345E+02  0.00000000000E+00 0. -1.
       -5    1    5    5    0  501 -0.19243004227E+02  0.48281527497E+02  0.14500235016E+03  0.15410765932E+03  0.47000000000E+01 0.  1.
        3    1    6    6  503    0  0.24717186078E+02 -0.70879717342E+01  0.78794448839E+02  0.82883917612E+02  0.00000000000E+00 0. -1.
       -4    1    6    6    0  503  0.84550034430E+02  0.31333733321E+02  0.38303204677E+02  0.97967579610E+02  0.00000000000E+00 0.  1.
</event>
<event>
12   0  0.1523332E-01  0.1829134E+03  0.7957747E-01  0.1170732E+00
       21   -1    0    0  501  503  0.00000000000E+00  0.00000000000E+00  0.10771149053E+03  0.10771149053E+03  0.00000000000E+00 0. -1.
       21   -1    0    0  503  504  0.00000000000E+00  0.00000000000E+00 -0.32027522084E+03  0.32027522084E+03  0.00000000000E+00 0. -1.
        6    2    1    2  501    0  0.29331266088E+01 -0.57737567752E+02 -0.14789255294E+03  0.23522231288E+03  0.17353702574E+03 0.  0.
       24    2    3    3    0    0  0.13494173992E+02 -0.40713568115E+00 -0.44668069949E+01  0.80330903303E+02  0.79062273996E+02 0.  0.
       -6    2    1    2    0  504 -0.29331266088E+01  0.57737567752E+02 -0.64671177379E+02  0.19276439849E+03  0.17214389963E+03 0.  0.
      -24    2    5    5    0    0  0.13393841449E+02  0.10286696622E+03 -0.32921750767E+02  0.13502923951E+03  0.79925253349E+02 0.  0.
        5    1    3    3  501    0 -0.10561047384E+02 -0.57330432071E+02 -0.14342574594E+03  0.15489140958E+03  0.47000000000E+01 0. -1.
        2    1    4    4  502    0 -0.25296746961E+02  0.21838005928E+02  0.70510970194E+01  0.34154675799E+02  0.00000000000E+00 0. -1.
       -1    1    4    4    0  502  0.38790920953E+02 -0.22245141610E+02 -0.11517904014E+02  0.46176227504E+02  0.00000000000E+00 0.  1.
       -5    1    5    5    0  504 -0.16326968057E+02 -0.45129398464E+02 -0.31749426611E+02  0.57735158974E+02  0.47000000000E+01 0.  1.
       11    1    6    6    0    0 -0.17540974223E+02  0.79363253168E+02 -0.46781582136E+02  0.93780211970E+02  0.00000000000E+00 0. -1.
      -12    1    6    6    0    0  0.30934815672E+02  0.23503713048E+02  0.13859831369E+02  0.41249027543E+02  0.00000000000E+00 0.  1.
</event>
<event>
12   0  0.1523332E-01  0.3018574E+03  0.7957747E-01  0.1092549E+00
       21   -1    0    0  504  503  0.00000000000E+00  0.00000000000E+00  0.11907256926E+03  0.11907256926E+03  0.00000000000E+00 0. -1.
       21   -1    0    0  501  504  0.00000000000E+00  0.00000000000E+00 -0.87951797345E+03  0.87951797345E+03  0.00000000000E+00 0.  1.
        6    2    1    2  501    0  0.16392319580E+03  0.18136962345E+03 -0.19757181673E+03  0.36076653783E+03  0.17706529196E+03 0.  0.
       24    2    3    3    0    0  0.83034649890E+01  0.58369518502E+02 -0.92072249871E+02  0.13604721280E+03  0.80966639378E+02 0.  0.
       -6    2    1    2    0  503 -0.16392319580E+03 -0.18136962345E+03 -0.56287358745E+03  0.63782400489E+03  0.17385922848E+03 0.  0.
      -24    2    5    5    0    0 -0.15159165816E+03 -0.75639513539E+02 -0.29827643318E+03  0.35257908028E+03  0.81497303214E+02 0.  0.
        5    1    3    3  501    0  0.15561973081E+03  0.12300010494E+03 -0.10549956686E+03  0.22471932503E+03  0.47000000000E+01 0. -1.
        4    1    4    4  502    0 -0.34867624080E+02  0.30942881348E+02 -0.29237573673E+02  0.55027709650E+02  0.00000000000E+00 0. -1.
       -3    1    4    4    0  502  0.43171089069E+02  0.27426637154E+02 -0.62834676198E+02  0.81019503145E+02  0.00000000000E+00 0.  1.
       -5    1    5    5    0  503 -0.12331537636E+02 -0.10573010991E+03 -0.26459715428E+03  0.28524492461E+03  0.47000000000E+01 0.  1.
       11    1    6    6    0    0  0.76224697045E+01  0.38614034275E+01 -0.25424332054E+02  0.26821803467E+02  0.00000000000E+00 0. -1.
      -12    1    6    6    0    0 -0.15921412787E+03 -0.79500916967E+02 -0.27285210112E+03  0.32575727682E+03  0.00000000000E+00 0.  1.
</event>
<event>
12   0  0.1523332E-01  0.2457404E+03  0.7957747E-01  0.1123350E+00
       21   -1    0    0  504  503  0.00000000000E+00  0.00000000000E+00  0.50979828181E+03  0.50979828181E+03  0.00000000000E+00 0. -1.
       21   -1    0    0  501  504  0.00000000000E+00  0.00000000000E+00 -0.15264402922E+03  0.15264402922E+03  0.00000000000E+00 0. -1.
        6    2    1    2  501    0  0.45078503052E+02 -0.16651751058E+03  0.18955462407E+02  0.24647043852E+03  0.17500918473E+03 0.  0.
       24    2    3    3    0    0 -0.13438947310E+02 -0.88979046342E+02  0.67664543065E+02  0.13769925680E+03  0.79276219278E+02 0.  0.
       -6    2    1    2    0  503 -0.45078503052E+02  0.16651751058E+03  0.33819879018E+03  0.41597187252E+03  0.16998242343E+03 0.  0.
      -24    2    5    5    0    0  0.52815696095E+01  0.24859413616E+02  0.15698431143E+03  0.18046405807E+03  0.85307190771E+02 0.  0.
        5    1    3    3  501    0  0.58517450362E+02 -0.77538464242E+02 -0.48709080657E+02  0.10877118172E+03  0.47000000000E+01 0. -1.
        4    1    4    4  502    0  0.26406543459E+02 -0.66868213350E+02  0.54654194098E+02  0.90309160258E+02  0.00000000000E+00 0. -1.
       -3    1    4    4    0  502 -0.39845490769E+02 -0.22110832991E+02  0.13010348967E+02  0.47390096544E+02  0.00000000000E+00 0.  1.
       -5    1    5    5    0  503 -0.50360072662E+02  0.14165809697E+03  0.18121447875E+03  0.23550781444E+03  0.47000000000E+01 0.  1.
       13    1    6    6    0    0 -0.21080315696E+02  0.47905810625E+02  0.11048702130E+03  0.12225681281E+03  0.00000000000E+00 0. -1.
      -14    1    6    6    0    0  0.26361885306E+02 -0.23046397009E+02  0.46497290133E+02  0.58207245268E+02  0.00000000000E+00 0.  1.
</event>
<event>
12   0  0.1523332E-01  0.3168592E+03  0.7957747E-01  0.1085530E+00
       21   -1    0    0  504  503  0.00000000000E+00  0.00000000000E+00  0.56465502588E+03  0.56465502588E+03  0.00000000000E+00 0. -1.
       21   -1    0    0  501  504  0.00000000000E+00  0.00000000000E+00 -0.24813759146E+03  0.24813759146E+03  0.00000000000E+00 0.  1.
        6    2    1    2  501    0 -0.39209653721E+01 -0.26555714838E+03 -0.58904676778E+02  0.32228791869E+03  0.17281136699E+03 0.  0.
       24    2    3    3    0    0 -0.68973002686E+02 -0.17244053565E+03 -0.31086904654E+02  0.20524779920E+03  0.81653230186E+02 0.  0.
       -6    2    1    2    0  503  0.39209653721E+01  0.26555714838E+03  0.37542211121E+03  0.49050469865E+03  0.17063740738E+03 0.  0.
      -24    2    5    5    0    0  0.65881013789E+02  0.13604686535E+03  0.20608357056E+03  0.26844706569E+03  0.82123878825E+02 0.  0.
        5    1    3    3  501    0  0.65052037313E+02 -0.93116612726E+02 -0.27817772123E+02  0.11704011949E+03  0.47000000000E+01 0. -1.
        2    1    4    4  502    0 -0.55032780462E+02 -0.72693920951E+02  0.18426441197E+02  0.93019066883E+02  0.00000000000E+00 0. -1.
       -1    1    4    4    0  502 -0.13940222224E+02 -0.99746614700E+02 -0.49513345851E+02  0.11222873232E+03  0.00000000000E+00 0.  1.
       -5    1    5    5    0  503 -0.61960048417E+02  0.12951028303E+03  0.16933854064E+03  0.22205763296E+03  0.47000000000E+01 0.  1.
       13    1    6    6    0    0  0.78912905452E+01  0.96677613595E+02  0.15022987280E+03  0.17882351109E+03  0.00000000000E+00 0. -1.
      -14    1    6    6    0    0  0.57989723244E+02  0.39369251751E+02  0.55853697760E+02  0.89623554598E+02  0.00000000000E+00 0.  1.
</event>
<event>
12   0  0.1523332E-01  0.1949545E+03  0.7957747E-01  0.1160166E+00
       21   -1    0    0  504  503  0.00000000000E+00  0.00000000000E+00  0.94306799945E+02  0.94306799945E+02  0.00000000000E+00 0.  1.
       21   -1    0    0  501  504  0.00000000000E+00  0.00000000000E+00 -0.42042344822E+03  0.42042344822E+03  0.00000000000E+00 0. -1.
        6    2    1    2  501    0 -0.72755017709E+01 -0.93282494012E+02 -0.22222639952E+03  0.29382203734E+03  0.16790551025E+03 0.  0.
       24    2    3    3    0    0 -0.31412215968E+02 -0.83784389658E+02 -0.23551725718E+03  0.26430031896E+03  0.79873205207E+02 0.  0.
       -6    2    1    2    0  503  0.72755017709E+01  0.93282494012E+02 -0.10389024876E+03  0.22090821082E+03  0.17103419894E+03 0.  0.
      -24    2    5    5    0    0 -0.14411701035E+01 -0.12094082407E+02 -0.58667297686E+02  0.10581082367E+03  0.87210863925E+02 0.  0.
        5    1    3    3  501    0  0.24136714197E+02 -0.94981043542E+01  0.13290857667E+02  0.29521718379E+02  0.47000000000E+01 0. -1.
      -11    1    4    4    0    0 -0.46409269721E+01  0.13425374211E+02 -0.10310297889E+02  0.17552239698E+02  0.00000000000E+00 0.  1.
       12    1    4    4    0    0 -0.26771288995E+02 -0.97209763869E+02 -0.22520695930E+03  0.24674807926E+03  0.00000000000E+00 0. -1.
       -5    1    5    5    0  503  0.87166718744E+01  0.10537657642E+03 -0.45222951072E+02  0.11509738716E+03  0.47000000000E+01 0.  1.
        1    1    6    6  502    0 -0.27772668675E+02 -0.70522415716E+01  0.11362394482E+02  0.30824653200E+02  0.00000000000E+00 0. -1.
       -2    1    6    6    0  502  0.26331498571E+02 -0.50418408357E+01 -0.70029692168E+02  0.74986170466E+02  0.00000000000E+00 0.  1.
</event>
<event>
12   0  0.1523332E-01  0.2087211E+03  0.7957747E-01  0.1149067E+00
       21   -1    0    0  501  503  0.00000000000E+00  0.00000000000E+00  0.32254012508E+03  0.32254012508E+03  0.00000000000E+00 0. -1.
       21   -1    0    0  503  504  0.00000000000E+00  0.00000000000E+00 -0.15740880040E+03  0.15740880040E+03  0.00000000000E+00 0. -1.
        6    2    1    2  501    0  0.19230035076E+02  0.11465139105E+03  0.17379181377E+03  0.27160283745E+03  0.17334869789E+03 0.  0.
       24    2    3    3    0    0 -0.38068338670E+02  0.10765399477E+02  0.71106026372E+02  0.11462556581E+03  0.80733271434E+02 0.  0.
       -6    2    1    2    0  504 -0.19230035076E+02 -0.11465139105E+03 -0.86604890871E+01  0.20834608803E+03  0.17267991374E+03 0.  0.
      -24    2    5    5    0    0 -0.12767263263E+02 -0.67900613704E+01 -0.47641197219E+02  0.93379051599E+02  0.78999086453E+02 0.  0.
        5    1    3    3  501    0  0.57298373746E+02  0.10388599157E+03  0.10268578739E+03  0.15697727164E+03  0.47000000000E+01 0. -1.
        2    1    4    4  502    0 -0.14618914599E+02  0.19151820352E+02  0.83429831541E+02  0.86839171333E+02  0.00000000000E+00 0. -1.
       -1    1    4    4    0  502 -0.23449424071E+02 -0.83864208749E+01 -0.12323805169E+02  0.27786394480E+02  0.00000000000E+00 0.  1.
       -5    1    5    5    0  504 -0.64627718134E+01 -0.10786132968E+03  0.38980708132E+02  0.11496703643E+03  0.47000000000E+01 0.  1.
       13    1    6    6    0    0 -0.44519798594E+02 -0.54936977605E+01 -0.41298191846E+02  0.60973222251E+02  0.00000000000E+00 0. -1.
      -14    1    6    6    0    0  0.31752535331E+02 -0.12963636099E+01 -0.63430053725E+01  0.32405829348E+02  0.00000000000E+00 0.  1.
</event>
<event>
12   0  0.1523332E-01  0.1971224E+03  0.7957747E-01  0.1158352E+00
       21   -1    0    0  504  503  0.00000000000E+00  0.00000000000E+00  0.33851146302E+03  0.33851146302E+03  0.00000000000E+00 0.  1.
       21   -1    0    0  501  504  0.00000000000E+00  0.00000000000E+00 -0.12096560277E+03  0.12096560277E+03  0.00000000000E+00 0.  1.
        6    2    1    2  501    0  0.81620494005E+02 -0.46685453157E+02  0.16187890495E+03  0.25464531009E+03  0.17262102277E+03 0.  0.
       24    2    3    3    0    0  0.80576683641E+02 -0.86231049136E+02  0.16027171149E+03  0.21477531169E+03  0.80703266522E+02 0.  0.
       -6    2    1    2    0  503 -0.81620494005E+02  0.46685453157E+02  0.55666955301E+02  0.20483175571E+03  0.17325069020E+03 0.  0.
      -24    2    5    5    0    0 -0.10696041158E+03 -0.77758725041E+01  0.22529833878E+02  0.13606907519E+03  0.80661056094E+02 0.  0.
        5    1    3    3  501    0  0.10438103647E+01  0.39545595979E+02  0.16071934646E+01  0.39869998398E+02  0.47000000000E+01 0. -1.
        4    1    4    4  502    0  0.68624703326E+02 -0.18111557143E+02  0.59840666463E+02  0.92834712104E+02  0.00000000000E+00 0. -1.
       -3    1    4    4    0  502  0.11951980314E+02 -0.68119491993E+02  0.10043104502E+03  0.12194059959E+03  0.00000000000E+00 0.  1.
       -5    1    5    5    0  503  0.25339917574E+02  0.54461325661E+02  0.33137121423E+02  0.68762680515E+02  0.47000000000E+01 0.  1.
       13    1    6    6    0    0 -0.10023555870E+03  0.13815597584E+02  0.38632416348E+02  0.10830743999E+03  0.00000000000E+00 0. -1.
      -14    1    6    6    0    0 -0.67248528815E+01 -0.21591470088E+02 -0.16102582470E+02  0.27761635202E+02  0.00000000000E+00 0.  1.
</event>
<event>
12   0  0.1523332E-01  0.2021248E+03  0.7957747E-01  0.1154264E+00
       21   -1    0    0  504  503  0.00000000000E+00  0.00000000000E+00  0.35947956501E+03  0.35947956501E+03  0.00000000000E+00 0. -1.
       21   -1    0    0  501  504  0.00000000000E+00  0.00000000000E+00 -0.14041632164E+03  0.14041632164E+03  0.00000000000E+00 0. -1.
        6    2    1    2  501    0  0.10047983979E+03  0.36086435801E+02 -0.12929933255E+01  0.20087862132E+03  0.17015322395E+03 0.  0.
       24    2    3    3    0    0  0.20678610729E+02 -0.35809695064E+02  0.56126656672E+01  0.93142518185E+02  0.83271168334E+02 0.  0.
       -6    2    1    2    0  503 -0.10047983979E+03 -0.36086435801E+02  0.22035623670E+03  0.29901726533E+03  0.17162757603E+03 0.  0.
      -24    2    5    5    0    0 -0.41347857292E+02 -0.11283612774E+02  0.27822830910E+02  0.96032108895E+02  0.81308614545E+02 0.  0.
        5    1    3    3  501    0  0.79801229063E+02  0.71896130865E+02 -0.69056589927E+01  0.10773610314E+03  0.47000000000E+01 0. -1.
        4    1    4    4  502    0  0.95092687815E+00 -0.48555534367E+02 -0.24948871213E+02  0.54598446447E+02  0.00000000000E+00 0. -1.
       -3    1    4    4    0  502  0.19727683851E+02  0.12745839303E+02  0.30561536880E+02  0.38544071738E+02  0.00000000000E+00 0.  1.
       -5    1    5    5    0  503 -0.59131982501E+02 -0.24802823027E+02  0.19253340579E+03  0.20298515643E+03  0.47000000000E+01 0.  1.
       13    1    6    6    0    0 -0.17510093784E+02  0.69387639836E+00  0.55135011554E+02  0.57852868104E+02  0.00000000000E+00 0. -1.
      -14    1    6    6    0    0 -0.23837763508E+02 -0.11977489172E+02 -0.27312180643E+02  0.38179240792E+02  0.00000000000E+00 0.  1.
</event>
<event>
12   0  0.1523332E-01  0.2435673E+03  0.7957747E-01  0.1124719E+00
       21   -1    0    0  504  503  0.00000000000E+00  0.00000000000E+00  0.19428422942E+03  0.19428422942E+03  0.00000000000E+00 0. -1.
       21   -1    0    0  501  504  0.00000000000E+00  0.00000000000E+00 -0.30593103552E+03  0.30593103552E+03  0.00000000000E+00 0. -1.
        6    2    1    2  501    0 -0.67057698121E+02  0.15185254267E+03 -0.87164813468E+02  0.25869432885E+03  0.17823894491E+03 0.  0.
       24    2    3    3    0    0 -0.24595860011E+02  0.85408167637E+02 -0.12336286879E+03  0.17180214349E+03  0.79987922107E+02 0.  0.
       -6    2    1    2    0  503  0.67057698121E+02 -0.15185254267E+03 -0.24481992636E+02  0.24152093608E+03  0.17371547142E+03 0.  0.
      -24    2    5    5    0    0  0.36605211475E+02 -0.17004562334E+03 -0.49301911356E+02  0.19797256651E+03  0.80665997198E+02 0.  0.
        5    1    3    3  501    0 -0.42461838110E+02  0.66444375029E+02  0.36198055318E+02  0.86892185365E+02  0.47000000000E+01 0. -1.
        2    1    4    4  502    0  0.19494283785E+02  0.63319286474E+02 -0.48298895420E+02  0.81988672624E+02  0.00000000000E+00 0. -1.
       -1    1    4    4    0  502 -0.44090143796E+02  0.22088881163E+02 -0.75063973366E+02  0.89813470863E+02  0.00000000000E+00 0.  1.
       -5    1    5    5    0  503  0.30452486646E+02  0.18193080671E+02  0.24819918720E+02  0.43548369573E+02  0.47000000000E+01 0.  1.
       11    1    6    6    0    0  0.46099914985E+02 -0.82787837150E+02  0.47759558888E+01  0.94878015874E+02  0.00000000000E+00 0. -1.
      -12    1    6    6    0    0 -0.94947035093E+01 -0.87257786186E+02 -0.54077867245E+02  0.10309455063E+03  0.00000000000E+00 0.  1.
</event>
<event>
12   0  0.1523332E-01  0.1872167E+03  0.7957747E-01  0.1166855E+00
       21   -1    0    0  501  503  0.00000000000E+00  0.00000000000E+00  0.16279539590E+03  0.16279539590E+03  0.00000000000E+00 0. -1.
       21   -1    0    0  503  504  0.00000000000E+00  0.00000000000E+00 -0.20656257427E+03  0.20656257427E+03  0.00000000000E+00 0. -1.
        6    2    1    2  501    0 -0.32945690745E+02 -0.34292491978E+02 -0.51636443161E+01  0.18728791448E+03  0.18107652013E+03 0.  0.
       24    2    3    3    0    0 -0.57405411228E+02  0.13172313197E+02 -0.58554447226E+02  0.11163176144E+03  0.74593135073E+02 0.  0.
       -6    2    1    2    0  504  0.32945690745E+02  0.34292491978E+02 -0.38603534056E+02  0.18207005570E+03  0.17145809632E+03 0.  0.
      -24    2    5    5    0    0 -0.10776001099E+02 -0.19688513042E+02 -0.58885751879E+02  0.10955113678E+03  0.89611160300E+02 0.  0.
        5    1    3    3  501    0  0.24459720483E+02 -0.47464805175E+02  0.53390802910E+02  0.75656153033E+02  0.47000000000E+01 0. -1.
      -11    1    4    4    0    0 -0.69557509055E+01  0.34911166839E+02 -0.69673700386E+01  0.36272803669E+02  0.00000000000E+00 0.  1.
       12    1    4    4    0    0 -0.50449660323E+02 -0.21738853642E+02 -0.51587077187E+02  0.75358957776E+02  0.00000000000E+00 0. -1.
       -5    1    5    5    0  504  0.43721691844E+02  0.53981005020E+02  0.20282217822E+02  0.72518918914E+02  0.47000000000E+01 0.  1.
        1    1    6    6  502    0  0.15299026185E+02  0.28365367966E+02 -0.46876972923E+01  0.32567296602E+02  0.00000000000E+00 0. -1.
       -2    1    6    6    0  502 -0.26075027285E+02 -0.48053881008E+02 -0.54198054587E+02  0.76983840180E+02  0.00000000000E+00 0.  1.
</event>
<event>
12   0  0.1523332E-01  0.2934246E+03  0.7957747E-01  0.1096691E+00
       21   -1    0    0  501  503  0.00000000000E+00  0.00000000000E+00  0.16590207440E+03  0.16590207440E+03  0.00000000000E+00 0.  1.
       21   -1    0    0  503  504  0.00000000000E+00  0.00000000000E+00 -0.87141580569E+03  0.87141580569E+03  0.00000000000E+00 0. -1.
        6    2    1    2  501    0  0.16146558355E+03  0.17339730034E+03 -0.20189727971E+02  0.29182007183E+03  0.16915546331E+03 0.  0.
       24    2    3    3    0    0  0.15422145691E+02  0.57022927883E+02 -0.26282016084E+02  0.10492200795E+03  0.82634293728E+02 0.  0.
       -6    2    1    2    0  504 -0.16146558355E+03 -0.17339730034E+03 -0.68532400331E+03  0.74549780827E+03  0.17309024864E+03 0.  0.
      -24    2    5    5    0    0 -0.14800489381E+03 -0.20117677639E+03 -0.61334525345E+03  0.66703813780E+03  0.79811862507E+02 0.  0.
        5    1    3    3  501    0  0.14604343786E+03  0.11637437246E+03  0.60922881130E+01  0.18689806388E+03  0.47000000000E+01 0. -1.
      -11    1    4    4    0    0  0.12279970473E+02  0.78638606616E+02 -0.22886589415E+02  0.82816810493E+02  0.00000000000E+00 0.  1.
       12    1    4    4    0    0  0.31421752174E+01 -0.21615678732E+02 -0.33954266699E+01  0.22105197453E+02  0.00000000000E+00 0. -1.
       -5    1    5    5    0  504 -0.13460689745E+02  0.27779476052E+02 -0.71978749859E+02  0.78459670465E+02  0.47000000000E+01 0.  1.
        3    1    6    6  502    0 -0.86670434192E+02 -0.12626274887E+03 -0.46780618345E+03  0.49223639767E+03  0.00000000000E+00 0. -1.
       -4    1    6    6    0  502 -0.61334459617E+02 -0.74914027522E+02 -0.14553907000E+03  0.17480174013E+03  0.00000000000E+00 0.  1.
</event>
<event>
12   0  0.1523332E-01  0.1966204E+03  0.7957747E-01  0.1158770E+00
       21   -1    0    0  501  503  0.00000000000E+00  0.00000000000E+00  0.18912000247E+03  0.18912000247E+03  0.00000000000E+00 0. -1.
       21   -1    0    0  503  504  0.00000000000E+00  0.00000000000E+00 -0.29046448619E+03  0.29046448619E+03  0.00000000000E+00 0. -1.
        6    2    1    2  501    0 -0.61128240943E+02 -0.21215815633E+02  0.89950036939E+02  0.20526136282E+03  0.17278438948E+03 0.  0.
       24    2    3    3    0    0 -0.26412692742E+02 -0.74548099841E+02  0.81923050837E+02  0.14094943289E+03  0.83068085602E+02 0.  0.
       -6    2    1    2    0  504  0.61128240943E+02  0.21215815633E+02 -0.19129452065E+03  0.27432312584E+03  0.18566855163E+03 0.  0.
      -24    2    5    5    0    0 -0.27947782609E+01 -0.44471286411E+02 -0.14246891468E+03  0.17036651202E+03  0.82108773380E+02 0.  0.
        5    1    3    3  501    0 -0.34715548201E+02  0.53332284208E+02  0.80269861023E+01  0.64311929932E+02  0.47000000000E+01 0. -1.
      -11    1    4    4    0    0  0.11822425396E+01 -0.29195683984E+02 -0.13162730898E+02  0.32047513873E+02  0.00000000000E+00 0.  1.
       12    1    4    4    0    0 -0.27594935282E+02 -0.45352415857E+02  0.95085781735E+02  0.10890191902E+03  0.00000000000E+00 0. -1.
       -5    1    5    5    0  504  0.63923019204E+02  0.65687102044E+02 -0.48825605972E+02  0.10395661382E+03  0.47000000000E+01 0.  1.
        3    1    6    6  502    0  0.34101429348E+02 -0.35141774169E+02 -0.10974700786E+03  0.12017594397E+03  0.00000000000E+00 0. -1.
       -4    1    6    6    0  502 -0.36896207609E+02 -0.93295122418E+01 -0.32721906817E+02  0.50190568042E+02  0.00000000000E+00 0.  1.
</event>
<event>
12   0  0.1523332E-01  0.2124437E+03  0.7957747E-01  0.1146226E+00
        1   -1    0    0  502    0  0.00000000000E+00  0.00000000000E+00  0.35266239845E+03  0.35266239845E+03  0.00000000000E+00 0.  1.
       -1   -1    0    0    0  501  0.00000000000E+00  0.00000000000E+00 -0.15505525595E+03  0.15505525595E+03  0.00000000000E+00 0. -1.
        6    2    1    2  502    0  0.71098773635E+02 -0.10092526187E+03  0.20470905092E+03  0.29468268180E+03  0.17231118167E+03 0.  0.
       24    2    3    3    0    0  0.58814561441E+01 -0.41767470832E+02  0.25166215702E+02  0.94656027526E+02  0.80915461985E+02 0.  0.
       -6    2    1    2    0  501 -0.71098773635E+02  0.10092526187E+03 -0.71019084240E+01  0.21303497260E+03  0.17347195264E+03 0.  0.
      -24    2    5    5    0    0 -0.56405665341E+02  0.49798108288E+02  0.61965238946E+02  0.12572956549E+03  0.79415251239E+02 0.  0.
        5    1    3    3  502    0  0.65217317491E+02 -0.59157791037E+02  0.17954283522E+03  0.20002665428E+03  0.47000000000E+01 0. -1.
      -13    1    4    4    0    0  0.12811480614E+02 -0.12854646111E+02  0.51708165499E+02  0.54800641798E+02  0.00000000000E+00 0.  1.
       14    1    4    4    0    0 -0.69300244703E+01 -0.28912824721E+02 -0.26541949797E+02  0.39855385728E+02  0.00000000000E+00 0. -1.
       -5    1    5    5    0  501 -0.14693108294E+02  0.51127153581E+02 -0.69067147370E+02  0.87305407109E+02  0.47000000000E+01 0.  1.
        3    1    6    6  503    0 -0.27759428323E+02  0.57484305026E+02  0.82459737211E+01  0.64366351984E+02  0.00000000000E+00 0. -1.
       -4    1    6    6    0  503 -0.28646237018E+02 -0.76861967384E+01  0.53719265225E+02  0.61363213507E+02  0.00000000000E+00 0.  1.
</event>
<event>
12   0  0.1523332E-01  0.2009574E+03  0.7957747E-01  0.1155206E+00
       21   -1    0    0  504  503  0.00000000000E+00  0.00000000000E+00  0.78510039781E+03  0.78510039781E+03  0.00000000000E+00 0.  1.
       21   -1    0    0  501  504  0.00000000000E+00  0.00000000000E+00 -0.62010209870E+02  0.62010209870E+02  0.00000000000E+00 0.  1.
        6    2    1    2  501    0 -0.49639683995E+01 -0.10121096063E+03  0.18611620678E+03  0.27390350002E+03  0.17353842619E+03 0.  0.
       24    2    3    3    0    0 -0.22767252347E+02 -0.88112952166E+01  0.15237319031E+03  0.17382684816E+03  0.80013732031E+02 0.  0.
       -6    2    1    2    0  503  0.49639683995E+01  0.10121096063E+03  0.53697398115E+03  0.57320710765E+03  0.17308099923E+03 0.  0.
      -24    2    5    5    0    0 -0.20043538141E+02 -0.59795840543E+01  0.31037452483E+03  0.32124561881E+03  0.80180440851E+02 0.  0.
        5    1    3    3  501    0  0.17803283948E+02 -0.92399665413E+02  0.33743016478E+02  0.10007665187E+03  0.47000000000E+01 0. -1.
      -11    1    4    4    0    0 -0.23082977875E+02 -0.18564296744E+01  0.19465378462E+01  0.23239174002E+02  0.00000000000E+00 0.  1.
       12    1    4    4    0    0  0.31572552757E+00 -0.69548655422E+01  0.15042665246E+03  0.15058767416E+03  0.00000000000E+00 0. -1.
       -5    1    5    5    0  503  0.25007506540E+02  0.10719054468E+03  0.22659945632E+03  0.25196148884E+03  0.47000000000E+01 0.  1.
        1    1    6    6  502    0 -0.30338238116E+02  0.31406229094E+02  0.14817421868E+03  0.15447446067E+03  0.00000000000E+00 0. -1.
       -2    1    6    6    0  502  0.10294699976E+02 -0.37385813149E+02  0.16220030615E+03  0.16677115814E+03  0.00000000000E+00 0.  1.
</event>
<event>
12   0  0.1523332E-01  0.2311036E+03  0.7957747E-01  0.1132886E+00
       21   -1    0    0  501  503  0.00000000000E+00  0.00000000000E+00  0.88062385254E+03  0.88062385254E+03  0.00000000000E+00 0.  1.
       21   -1    0    0  503  504  0.00000000000E+00  0.00000000000E+00 -0.12471558559E+03  0.12471558559E+03  0.00000000000E+00 0.  1.
        6    2    1    2  501    0  0.20080690473E+02 -0.15095675630E+03  0.73876049508E+03  0.77406455153E+03  0.17383234579E+03 0.  0.
       24    2    3    3    0    0 -0.50068847185E+02 -0.44261846129E+02  0.27310803986E+03  0.29119908316E+03  0.75781951134E+02 0.  0.
       -6    2    1    2    0  504 -0.20080690473E+02  0.15095675630E+03  0.17147771871E+02  0.23127488659E+03  0.17321330979E+03 0.  0.
      -24    2    5    5    0    0 -0.10511916230E+02  0.85226229383E+02  0.78222762418E+02  0.14091832580E+03  0.79781974327E+02 0.  0.
        5    1    3    3  501    0  0.70149537658E+02 -0.10669491017E+03  0.46565245522E+03  0.48286546836E+03  0.47000000000E+01 0. -1.
      -13    1    4    4    0    0 -0.91290569584E+01 -0.40338919624E+02  0.22089536592E+03  0.22473391111E+03  0.00000000000E+00 0.  1.
       14    1    4    4    0    0 -0.40939790227E+02 -0.39229265051E+01  0.52212673939E+02  0.66465172053E+02  0.00000000000E+00 0. -1.
       -5    1    5    5    0  504 -0.95687742428E+01  0.65730526914E+02 -0.61074990547E+02  0.90356560797E+02  0.47000000000E+01 0.  1.
        1    1    6    6  502    0 -0.21371500764E+02 -0.19282301082E+01  0.39458276067E+02  0.44915639441E+02  0.00000000000E+00 0. -1.
       -2    1    6    6    0  502  0.10859584534E+02  0.87154459491E+02  0.38764486351E+02  0.96002686356E+02  0.00000000000E+00 0.  1.
</event>
<event>
12   0  0.1523332E-01  0.1880621E+03  0.7957747E-01  0.1166107E+00
       21   -1    0    0  504  503  0.00000000000E+00  0.00000000000E+00  0.18351759420E+03  0.18351759420E+03  0.00000000000E+00 0.  1.
       21   -1    0    0  501  504  0.00000000000E+00  0.00000000000E+00 -0.20763878250E+03  0.20763878250E+03  0.00000000000E+00 0.  1.
        6    2    1    2  501    0 -0.69469091611E+02  0.14036258869E+02 -0.69884727100E+02  0.19760623364E+03  0.17070845685E+03 0.  0.
       24    2    3    3    0    0 -0.23465271773E+02 -0.55443713216E+02 -0.33421110440E+02  0.10652658004E+03  0.81279255146E+02 0.  0.
       -6    2    1    2    0  503  0.69469091611E+02 -0.14036258869E+02  0.45763538798E+02  0.19355014306E+03  0.17419639819E+03 0.  0.
      -24    2    5    5    0    0  0.82016095922E+02 -0.37577967414E+02 -0.19552725937E+02  0.12283986236E+03  0.81046770861E+02 0.  0.
        5    1    3    3  501    0 -0.46003819838E+02  0.69479972085E+02 -0.36463616661E+02  0.91079653604E+02  0.47000000000E+01 0. -1.
      -13    1    4    4    0    0 -0.49224028283E+02 -0.42292012581E+02 -0.40827418910E+02  0.76671359864E+02  0.00000000000E+00 0.  1.
       14    1    4    4    0    0  0.25758756510E+02 -0.13151700636E+02  0.74063084702E+01  0.29855220175E+02  0.00000000000E+00 0. -1.
       -5    1    5    5    0  503 -0.12547004310E+02  0.23541708545E+02  0.65316264735E+02  0.70710280705E+02  0.47000000000E+01 0.  1.
        3    1    6    6  502    0  0.71581907848E+02 -0.56567206186E+02  0.33705379766E+01  0.91297200795E+02  0.00000000000E+00 0. -1.
       -4    1    6    6    0  502  0.10434188074E+02  0.18989238772E+02 -0.22923263914E+02  0.31542661561E+02  0.00000000000E+00 0.  1.
</event>
<event>
12   0  0.1523332E-01  0.1826182E+03  0.7957747E-01  0.1171002E+00
       21   -1    0    0  504  503  0.00000000000E+00  0.00000000000E+00  0.47506276858E+03  0.47506276858E+03  0.00000000000E+00 0. -1.
       21   -1    0    0  501  504  0.00000000000E+00  0.00000000000E+00 -0.94222049252E+02  0.94222049252E+02  0.00000000000E+00 0.  1.
        6    2    1    2  501    0 -0.57049970980E+02  0.39790985593E+01  0.45956020834E+02  0.18784391633E+03  0.17292440151E+03 0.  0.
       24    2    3    3    0    0 -0.51641418676E+02 -0.51655678696E+02 -0.10394023045E+02  0.10833355019E+03  0.79328286995E+02 0.  0.
       -6    2    1    2    0  503  0.57049970980E+02 -0.39790985593E+01  0.33488469849E+03  0.38144090150E+03  0.17343260259E+03 0.  0.
      -24    2    5    5    0    0  0.81989981932E+02 -0.53146597254E+02  0.22665712265E+03  0.25988949161E+03  0.81376769805E+02 0.  0.
        5    1    3    3  501    0 -0.54085523045E+01  0.55634777255E+02  0.56350043879E+02  0.79510366138E+02  0.47000000000E+01 0. -1.
      -13    1    4    4    0    0  0.13283411559E+02  0.10491998310E+02 -0.72186862999E+01  0.18402186910E+02  0.00000000000E+00 0.  1.
       14    1    4    4    0    0 -0.64924830234E+02 -0.62147677006E+02 -0.31753367450E+01  0.89931363281E+02  0.00000000000E+00 0. -1.
       -5    1    5    5    0  503 -0.24940010952E+02  0.49167498695E+02  0.10822757584E+03  0.12155140989E+03  0.47000000000E+01 0.  1.
        1    1    6    6  502    0  0.38617368321E+02  0.18194187063E+02  0.92481510937E+02  0.10185852661E+03  0.00000000000E+00 0. -1.
       -2    1    6    6    0  502  0.43372613611E+02 -0.71340784317E+02  0.13417561171E+03  0.15803096499E+03  0.00000000000E+00 0.  1.
</event>
<event>
12   0  0.1523332E-01  0.2706095E+03  0.7957747E-01  0.1108700E+00
       21   -1    0    0  501  503  0.00000000000E+00  0.00000000000E+00  0.28516218581E+03  0.28516218581E+03  0.00000000000E+00 0. -1.
       21   -1    0    0  503  504  0.00000000000E+00  0.00000000000E+00 -0.25876794719E+03  0.25876794719E+03  0.00000000000E+00 0. -1.
        6    2    1    2  501    0  0.20730567402E+03  0.77828264077E+00  0.41811644796E+02  0.27382059272E+03  0.17393462896E+03 0.  0.
       24    2    3    3    0    0  0.16023336064E+03 -0.55942367998E+02 -0.43846491738E+01  0.18670444914E+03  0.77685569962E+02 0.  0.
       -6    2    1    2    0  504 -0.20730567402E+03 -0.77828264077E+00 -0.15417406174E+02  0.27010954028E+03  0.17246802351E+03 0.  0.
      -24    2    5    5    0    0 -0.15094872706E+03  0.60196794304E+02  0.14169590766E+02  0.18183980669E+03  0.80347780000E+02 0.  0.
        5    1    3    3  501    0  0.47072313378E+02  0.56720650639E+02  0.46196293970E+02  0.87116143580E+02  0.47000000000E+01 0. -1.
        4    1    4    4  502    0  0.55046240678E+02 -0.38869925514E+02 -0.34859035255E+02  0.75869045474E+02  0.00000000000E+00 0. -1.
       -3    1    4    4    0  502  0.10518711997E+03 -0.17072442485E+02  0.30474386081E+02  0.11083540367E+03  0.00000000000E+00 0.  1.
       -5    1    5    5    0  504 -0.56356946963E+02 -0.60975076945E+02 -0.29586996940E+02  0.88269733586E+02  0.47000000000E+01 0.  1.
       11    1    6    6    0    0 -0.69520090344E+02  0.55151454625E+02  0.38460316970E+02  0.96715675514E+02  0.00000000000E+00 0. -1.
      -12    1    6    6    0    0 -0.81428636714E+02  0.50453396793E+01 -0.24290726204E+02  0.85124131180E+02  0.00000000000E+00 0.  1.
</event>
<event>
12   0  0.1523332E-01  0.2892944E+03  0.7957747E-01  0.1098775E+00
       21   -1    0    0  501  503  0.00000000000E+00  0.00000000000E+00  0.39101625095E+03  0.39101625095E+03  0.00000000000E+00 0.  1.
       21   -1    0    0  503  504  0.00000000000E+00  0.00000000000E+00 -0.22625543336E+03  0.22625543336E+03  0.00000000000E+00 0. -1.
        6    2    1    2  501    0  0.20511720957E+03  0.10503302731E+03  0.15674872743E+03  0.32903100398E+03  0.17488919790E+03 0.  0.
       24    2    3    3    0    0  0.13983259754E+03  0.12666472876E+03  0.68213267912E+02  0.21682303338E+03  0.82231800640E+02 0.  0.
       -6    2    1    2    0  504 -0.20511720957E+03 -0.10503302731E+03  0.80120901477E+01  0.28824068033E+03  0.17295516680E+03 0.  0.
      -24    2    5    5    0    0 -0.92567648150E+02 -0.11469694387E+03  0.34493029096E+02  0.17211951436E+03  0.81921912507E+02 0.  0.
        5    1    3    3  501    0  0.65284612026E+02 -0.21631701448E+02  0.88535459522E+02  0.11220797061E+03  0.47000000000E+01 0. -1.
      -11    1    4    4    0    0  0.12654081586E+03  0.68748597825E+02  0.32970997147E+02  0.14773636801E+03  0.00000000000E+00 0.  1.
       12    1    4    4    0    0  0.13291781686E+02  0.57916130930E+02  0.35242270765E+02  0.69086665363E+02  0.00000000000E+00 0. -1.
       -5    1    5    5    0  504 -0.11254956142E+03  0.96639165655E+01 -0.26480938948E+02  0.11612116597E+03  0.47000000000E+01 0.  1.
        1    1    6    6  502    0 -0.44581527958E+02 -0.31889191215E+00  0.99001808975E+01  0.45668675358E+02  0.00000000000E+00 0. -1.
       -2    1    6    6    0  502 -0.47986120192E+02 -0.11437805196E+03  0.24592848199E+02  0.12645083900E+03  0.00000000000E+00 0.  1.
</event>
<event>
12   0  0.1523332E-01  0.1836635E+03  0.7957747E-01  0.1170048E+00
       21   -1    0    0  504  503  0.00000000000E+00  0.00000000000E+00  0.62382018448E+02  0.62382018448E+02  0.00000000000E+00 0. -1.
       21   -1    0    0  501  504  0.00000000000E+00  0.00000000000E+00 -0.54545045900E+03  0.54545045900E+03  0.00000000000E+00 0. -1.
        6    2    1    2  501    0  0.49943489096E+02  0.35984594523E+02 -0.29578434919E+03  0.34552042910E+03  0.16765065628E+03 0.  0.
       24    2    3    3    0    0  0.60086780549E+02 -0.24142716701E+02 -0.19126419117E+03  0.22442239712E+03  0.97929206766E+02 0.  0.
       -6    2    1    2    0  503 -0.49943489096E+02 -0.35984594523E+02 -0.18728409136E+03  0.26231204835E+03  0.17304056370E+03 0.  0.
      -24    2    5    5    0    0 -0.38522189570E+01 -0.31387093574E+02 -0.20653318803E+02  0.89299197495E+02  0.80918464282E+02 0.  0.
        5    1    3    3  501    0 -0.10143291453E+02  0.60127311224E+02 -0.10452015802E+03  0.12109803198E+03  0.47000000000E+01 0. -1.
      -13    1    4    4    0    0 -0.23984230148E+02 -0.32662171395E+01 -0.78988296304E+02  0.82613936011E+02  0.00000000000E+00 0.  1.
       14    1    4    4    0    0  0.84071010697E+02 -0.20876499561E+02 -0.11227589487E+03  0.14180846111E+03  0.00000000000E+00 0. -1.
       -5    1    5    5    0  503 -0.46091270139E+02 -0.45975009492E+01 -0.16663077256E+03  0.17301285085E+03  0.47000000000E+01 0.  1.
        3    1    6    6  502    0 -0.16823449173E+02 -0.15688965641E+02  0.28187704868E+02  0.36382946427E+02  0.00000000000E+00 0. -1.
       -4    1    6    6    0  502  0.12971230217E+02 -0.15698127933E+02 -0.48841023671E+02  0.52916251068E+02  0.00000000000E+00 0.  1.
</event>
<event>
12   0  0.1523332E-01  0.1939944E+03  0.7957747E-01  0.1160977E+00
       21   -1    0    0  501  503  0.00000000000E+00  0.00000000000E+00  0.36826522130E+03  0.36826522130E+03  0.00000000000E+00 0. -1.
       21   -1    0    0  503  504  0.00000000000E+00  0.00000000000E+00 -0.10317317659E+03  0.10317317659E+03  0.00000000000E+00 0. -1.
        6    2    1    2  501    0  0.47047123736E+01 -0.86989695505E+02  0.15576656793E+03  0.24875949466E+03  0.17328797147E+03 0.  0.
       24    2    3    3    0    0  0.32205112349E+02  0.14314982503E+02  0.82943914010E+02  0.12091529765E+03  0.80614690657E+02 0.  0.
       -6    2    1    2    0  504 -0.47047123736E+01  0.86989695505E+02  0.10932547677E+03  0.22267890323E+03  0.17333347232E+03 0.  0.
      -24    2    5    5    0    0  0.28174793567E+02  0.39459976979E+00  0.11461144777E+02  0.87848305833E+02  0.82413544376E+02 0.  0.
        5    1    3    3  501    0 -0.27500399975E+02 -0.10130467801E+03  0.72822653923E+02  0.12784419701E+03  0.47000000000E+01 0. -1.
      -11    1    4    4    0    0  0.12078893933E+01  0.27522285169E+02 -0.38446919955E+01  0.27815765930E+02  0.00000000000E+00 0.  1.
       12    1    4    4    0    0  0.30997222956E+02 -0.13207302666E+02  0.86788606006E+02  0.93099531723E+02  0.00000000000E+00 0. -1.
       -5    1    5    5    0  504 -0.32879505941E+02  0.86595095735E+02  0.97864331996E+02  0.13483059739E+03  0.47000000000E+01 0.  1.
        3    1    6    6  502    0 -0.13310094245E+02  0.29146219065E+02 -0.91584592663E+01  0.33324736619E+02  0.00000000000E+00 0. -1.
       -4    1    6    6    0  502  0.41484887812E+02 -0.28751619296E+02  0.20619604043E+02  0.54523569213E+02  0.00000000000E+00 0.  1.
</event>
<event>
12   0  0.1523332E-01  0.2588118E+03  0.7957747E-01  0.1115426E+00
       21   -1    0    0  504  503  0.00000000000E+00  0.00000000000E+00  0.26289116504E+03  0.26289116504E+03  0.00000000000E+00 0. -1.
       21   -1    0    0  501  504  0.00000000000E+00  0.00000000000E+00 -0.25631181114E+03  0.25631181114E+03  0.00000000000E+00 0.  1.
        6    2    1    2  501    0 -0.45182533961E+02  0.18663945996E+03  0.26208362024E+02  0.25964786485E+03  0.17278421829E+03 0.  0.
       24    2    3    3    0    0 -0.87815724299E+02  0.13740830970E+03 -0.14967918217E+02  0.18245414018E+03  0.80453897875E+02 0.  0.
       -6    2    1    2    0  503  0.45182533961E+02 -0.18663945996E+03 -0.19629008125E+02  0.25955511134E+03  0.17351601791E+03 0.  0.
      -24    2    5    5    0    0  0.86214506240E+01 -0.74634062538E+02  0.50264260209E+02  0.12248184324E+03  0.82648250848E+02 0.  0.
        5    1    3    3  501    0  0.42633190337E+02  0.49231150258E+02  0.41176280241E+02  0.77193724671E+02  0.47000000000E+01 0. -1.
        4    1    4    4  502    0 -0.10305388613E+03  0.11468770431E+03 -0.89694282842E+01  0.15444683101E+03  0.00000000000E+00 0. -1.
       -3    1    4    4    0  502  0.15238161828E+02  0.22720605397E+02 -0.59984899331E+01  0.28007309171E+02  0.00000000000E+00 0.  1.
       -5    1    5    5    0  503  0.36561083337E+02 -0.11200539742E+03 -0.69893268335E+02  0.13707326809E+03  0.47000000000E+01 0.  1.
       13    1    6    6    0    0  0.44133836241E+02 -0.55073558902E+02  0.25880695254E+02  0.75171156559E+02  0.00000000000E+00 0. -1.
      -14    1    6    6    0    0 -0.35512385617E+02 -0.19560503635E+02  0.24383564956E+02  0.47310686685E+02  0.00000000000E+00 0.  1.
</event>
<event>
12   0  0.1523332E-01  0.2207354E+03  0.7957747E-01  0.1140120E+00
       21   -1    0    0  501  503  0.00000000000E+00  0.00000000000E+00  0.38368361198E+03  0.38368361198E+03  0.00000000000E+00 0.  1.
       21   -1    0    0  503  504  0.00000000000E+00  0.00000000000E+00 -0.26221681540E+03  0.26221681540E+03  0.00000000000E+00 0.  1.
        6    2    1    2  501    0 -0.69147453592E+02 -0.11719202830E+03  0.29303902416E+03  0.36687326561E+03  0.17380673608E+03 0.  0.
       24    2    3    3    0    0 -0.45831968911E+02 -0.52608628745E+02  0.27658531287E+03  0.29610998461E+03  0.79457224325E+02 0.  0.
       -6    2    1    2    0  504  0.69147453592E+02  0.11719202830E+03 -0.17157222759E+03  0.27902716177E+03  0.17292711150E+03 0.  0.
      -24    2    5    5    0    0  0.52900552118E+02  0.14220561684E+03 -0.93966159168E+02  0.19575391712E+03  0.80430411666E+02 0.  0.
        5    1    3    3  501    0 -0.23315484681E+02 -0.64583399552E+02  0.16453711294E+02  0.70763281007E+02  0.47000000000E+01 0. -1.
      -13    1    4    4    0    0 -0.45968331679E+02 -0.63147632137E+02  0.15028159832E+03  0.16936726294E+03  0.00000000000E+00 0.  1.
       14    1    4    4    0    0  0.13636276776E+00  0.10539003393E+02  0.12630371455E+03  0.12674272167E+03  0.00000000000E+00 0. -1.
       -5    1    5    5    0  504  0.16246901474E+02 -0.25013588547E+02 -0.77606068420E+02  0.83273244653E+02  0.47000000000E+01 0.  1.
        3    1    6    6  502    0  0.24988462301E+01  0.63951983848E+02 -0.72538672657E+00  0.64004895567E+02  0.00000000000E+00 0. -1.
       -4    1    6    6    0  502  0.50401705888E+02  0.78253632995E+02 -0.93240772442E+02  0.13174902155E+03  0.00000000000E+00 0.  1.
</event>
<event>
12   0  0.1523332E-01  0.1924773E+03  0.7957747E-01  0.1162270E+00
       21   -1    0    0  501  503  0.00000000000E+00  0.00000000000E+00  0.77950924381E+02  0.77950924381E+02  0.00000000000E+00 0. -1.
       21   -1    0    0  503  504  0.00000000000E+00  0.00000000000E+00 -0.51654329108E+03  0.51654329108E+03  0.00000000000E+00 0. -1.
        6    2    1    2  501    0 -0.86107809391E+02  0.10270570720E+02 -0.13381443671E+03  0.23442232868E+03  0.17183563440E+03 0.  0.
       24    2    3    3    0    0 -0.81620175665E+01 -0.14809473744E+02 -0.12836162928E+03  0.15222513772E+03  0.80061511585E+02 0.  0.
       -6    2    1    2    0  504  0.86107809391E+02 -0.10270570720E+02 -0.30477792999E+03  0.36007188678E+03  0.17100332623E+03 0.  0.
      -24    2    5    5    0    0  0.12406311600E+03 -0.89940742411E+01 -0.27298900872E+03  0.31032391941E+03  0.79406460377E+02 0.  0.
        5    1    3    3  501    0 -0.77945791825E+02  0.25080044463E+02 -0.54528074296E+01  0.82197190964E+02  0.47000000000E+01 0. -1.
        2    1    4    4  502    0  0.32979708425E+02 -0.73912795464E+01 -0.29399737686E+02  0.44795499296E+02  0.00000000000E+00 0. -1.
       -1    1    4    4    0  502 -0.41141725992E+02 -0.74181941973E+01 -0.98961891597E+02  0.10742963842E+03  0.00000000000E+00 0.  1.
       -5    1    5    5    0  504 -0.37955306607E+02 -0.12764964786E+01 -0.31788921267E+02  0.49747967377E+02  0.47000000000E+01 0.  1.
       13    1    6    6    0    0  0.46124691021E+02 -0.62116776567E+01 -0.30604713271E+02  0.55702069400E+02  0.00000000000E+00 0. -1.
      -14    1    6    6    0    0  0.77938424977E+02 -0.27823965845E+01 -0.24238429545E+03  0.25462185000E+03  0.00000000000E+00 0.  1.
</event>
<event>
12   0  0.1523332E-01  0.2263702E+03  0.7957747E-01  0.1136136E+00
       -1   -1    0    0    0  501  0.00000000000E+00  0.00000000000E+00  0.92864101805E+03  0.92864101805E+03  0.00000000000E+00 0.  1.
        1   -1    0    0  502    0  0.00000000000E+00  0.00000000000E+00 -0.65518916810E+02  0.65518916810E+02  0.00000000000E+00 0. -1.
        6    2    1    2  502    0 -0.85520631532E+02  0.11904751692E+03  0.23366517609E+03  0.32514142113E+03  0.17213785032E+03 0.  0.
       24    2    3    3    0    0 -0.10325770161E+03  0.13852254808E+03  0.22907069587E+03  0.29799220858E+03  0.80469394165E+02 0.  0.
       -6    2    1    2    0  501  0.85520631532E+02 -0.11904751692E+03  0.62945692515E+03  0.66901851373E+03  0.17286891390E+03 0.  0.
      -24    2    5    5    0    0 -0.94465933091E+01 -0.11301789373E+02  0.24376338162E+03  0.25742464215E+03  0.81424146305E+02 0.  0.
        5    1    3    3  502    0  0.17737070075E+02 -0.19475031164E+02  0.45944802194E+01  0.27149212552E+02  0.47000000000E+01 0. -1.
      -11    1    4    4    0    0  0.46183054521E+01  0.42264995876E+02  0.78330709700E+02  0.89125522180E+02  0.00000000000E+00 0.  1.
       12    1    4    4    0    0 -0.10787600706E+03  0.96257552207E+02  0.15073998617E+03  0.20886668640E+03  0.00000000000E+00 0. -1.
       -5    1    5    5    0  501  0.94967224841E+02 -0.10774572755E+03  0.38569354353E+03  0.41159387157E+03  0.47000000000E+01 0.  1.
        3    1    6    6  503    0  0.37205801692E+01 -0.45665740048E+02  0.12801512731E+03  0.13596718483E+03  0.00000000000E+00 0. -1.
       -4    1    6    6    0  503 -0.13167173478E+02  0.34363950676E+02  0.11574825431E+03  0.12145745733E+03  0.00000000000E+00 0.  1.
</event>
<event>
12   0  0.1523332E-01  0.2160396E+03  0.7957747E-01  0.1143541E+00
       21   -1    0    0  501  503  0.00000000000E+00  0.00000000000E+00  0.98637841161E+02  0.98637841161E+02  0.00000000000E+00 0.  1.
       21   -1    0    0  503  504  0.00000000000E+00  0.00000000000E+00 -0.49573241620E+03  0.49573241620E+03  0.00000000000E+00 0.  1.
        6    2    1    2  501    0  0.22547364066E+02 -0.12643868696E+03 -0.13324860390E+03  0.25336029068E+03  0.17303502901E+03 0.  0.
       24    2    3    3    0    0 -0.17789435686E+02 -0.14444627727E+03 -0.79552478239E+02  0.18367030120E+03  0.78898616641E+02 0.  0.
       -6    2    1    2    0  504 -0.22547364066E+02  0.12643868696E+03 -0.26384597114E+03  0.34100996668E+03  0.17371809261E+03 0.  0.
      -24    2    5    5    0    0 -0.75118595257E+02  0.10308797524E+03 -0.22694759440E+03  0.27250762881E+03  0.80531131660E+02 0.  0.
        5    1    3    3  501    0  0.40336799753E+02  0.18007590313E+02 -0.53696125657E+02  0.69689989480E+02  0.47000000000E+01 0. -1.
      -11    1    4    4    0    0  0.77427850482E+01 -0.13298312515E+03 -0.80543307747E+02  0.15566530351E+03  0.00000000000E+00 0.  1.
       12    1    4    4    0    0 -0.25532220735E+02 -0.11463152124E+02  0.99082950741E+00  0.28004997686E+02  0.00000000000E+00 0. -1.
       -5    1    5    5    0  504  0.52571231191E+02  0.23350711719E+02 -0.36898376741E+02  0.68502337864E+02  0.47000000000E+01 0.  1.
        3    1    6    6  502    0 -0.74125766553E+02  0.41473449488E+02 -0.16237804738E+03  0.18325203014E+03  0.00000000000E+00 0. -1.
       -4    1    6    6    0  502 -0.99282870431E+00  0.61614525753E+02 -0.64569547016E+02  0.89255598673E+02  0.00000000000E+00 0.  1.
</event>
<event>
12   0  0.1523332E-01  0.1963115E+03  0.7957747E-01  0.1159028E+00
        2   -1    0    0  502    0  0.00000000000E+00  0.00000000000E+00  0.13486037981E+04  0.13486037981E+04  0.00000000000E+00 0.  1.
       -2   -1    0    0    0  501  0.00000000000E+00  0.00000000000E+00 -0.29479999260E+02  0.29479999260E+02  0.00000000000E+00 0. -1.
        6    2    1    2  502    0 -0.38830255477E+02 -0.84640529767E+02  0.53804089209E+03  0.57264230163E+03  0.17250911868E+03 0.  0.
       24    2    3    3    0    0  0.40453715590E+00 -0.94680281711E+02  0.50399706724E+03  0.51952697820E+03  0.83250933316E+02 0.  0.
       -6    2    1    2    0  501  0.38830255477E+02  0.84640529767E+02  0.78108290674E+03  0.80544149573E+03  0.17312910736E+03 0.  0.
      -24    2    5    5    0    0  0.82421426109E+02  0.97998056247E+02  0.63875123152E+03  0.65591220280E+03  0.76293980814E+02 0.  0.
        5    1    3    3  502    0 -0.39234792633E+02  0.10039751944E+02  0.34043824856E+02  0.53115323428E+02  0.47000000000E+01 0. -1.
        2    1    4    4  503    0  0.40453295618E+02 -0.44638315662E+02  0.20141285683E+03  0.21022889252E+03  0.00000000000E+00 0. -1.
       -1    1    4    4    0  503 -0.40048758463E+02 -0.50041966050E+02  0.30258421041E+03  0.30929808568E+03  0.00000000000E+00 0.  1.
       -5    1    5    5    0  501 -0.43591170633E+02 -0.13357526480E+02  0.14233167523E+03  0.14952929293E+03  0.47000000000E+01 0.  1.
       11    1    6    6    0    0  0.73251266542E+02  0.84181729339E+02  0.36542547980E+03  0.38208388201E+03  0.00000000000E+00 0. -1.
      -12    1    6    6    0    0  0.91701595677E+01  0.13816326908E+02  0.27332575172E+03  0.27382832079E+03  0.00000000000E+00 0.  1.
</event>
<event>
12   0  0.1523332E-01  0.1861634E+03  0.7957747E-01  0.1167794E+00
       21   -1    0    0  504  503  0.00000000000E+00  0.00000000000E+00  0.31705286690E+03  0.31705286690E+03  0.00000000000E+00 0. -1.
       21   -1    0    0  501  504  0.00000000000E+00  0.00000000000E+00 -0.11842891710E+03  0.11842891710E+03  0.00000000000E+00 0. -1.
        6    2    1    2  501    0 -0.57721647960E+02 -0.37031554976E+02  0.37502863769E+02  0.18990335042E+03  0.17307135235E+03 0.  0.
       24    2    3    3    0    0 -0.12292885874E+02 -0.88783678107E+02  0.29650832264E+02  0.12043537886E+03  0.74778687385E+02 0.  0.
       -6    2    1    2    0  503  0.57721647960E+02  0.37031554976E+02  0.16112108603E+03  0.24557843359E+03  0.17217908691E+03 0.  0.
      -24    2    5    5    0    0  0.77707962731E+02  0.79899973548E+02  0.11946265189E+03  0.18237503792E+03  0.81035769959E+02 0.  0.
        5    1    3    3  501    0 -0.45428762085E+02  0.51752123131E+02  0.78520315054E+01  0.69467971555E+02  0.47000000000E+01 0. -1.
        4    1    4    4  502    0  0.12201365140E+02 -0.80202891788E+02  0.12718453312E+00  0.81125787136E+02  0.00000000000E+00 0. -1.
       -3    1    4    4    0  502 -0.24494251014E+02 -0.85807863186E+01  0.29523647731E+02  0.39309591729E+02  0.00000000000E+00 0.  1.
       -5    1    5    5    0  503 -0.19986314772E+02 -0.42868418572E+02  0.41658434143E+02  0.63203395670E+02  0.47000000000E+01 0.  1.
       13    1    6    6    0    0  0.12933860847E+02  0.45004217914E+02  0.93111191944E+02  0.10422263886E+03  0.00000000000E+00 0. -1.
      -14    1    6    6    0    0  0.64774101884E+02  0.34895755635E+02  0.26351459948E+02  0.78152399052E+02  0.00000000000E+00 0.  1.
</event>
<event>
12   0  0.1523332E-01  0.1910187E+03  0.7957747E-01  0.1163525E+00
       21   -1    0    0  504  503  0.00000000000E+00  0.00000000000E+00  0.14923557208E+03  0.14923557208E+03  0.00000000000E+00 0. -1.
       21   -1    0    0  501  504  0.00000000000E+00  0.00000000000E+00 -0.32724344795E+03  0.32724344795E+03  0.00000000000E+00 0. -1.
        6    2    1    2  501    0  0.31038977446E+02  0.69487827940E+02 -0.21108864328E+03  0.28468675512E+03  0.17520318738E+03 0.  0.
       24    2    3    3    0    0  0.16131930371E+02 -0.29806691219E+02 -0.73315833626E+02  0.11414333348E+03  0.80652409127E+02 0.  0.
       -6    2    1    2    0  503 -0.31038977446E+02 -0.69487827940E+02  0.33080767404E+02  0.19179226491E+03  0.17291026388E+03 0.  0.
      -24    2    5    5    0    0  0.26347045796E+02 -0.50798623031E+02  0.69937460242E+02  0.12091950674E+03  0.80346822220E+02 0.  0.
        5    1    3    3  501    0  0.14907047075E+02  0.99294519159E+02 -0.13777280965E+03  0.17054342165E+03  0.47000000000E+01 0. -1.
        2    1    4    4  502    0 -0.28118670788E+02 -0.29665617143E+02 -0.48435655592E+02  0.63377608191E+02  0.00000000000E+00 0. -1.
       -1    1    4    4    0  502  0.44250601159E+02 -0.14107407576E+00 -0.24880178034E+02  0.50765725286E+02  0.00000000000E+00 0.  1.
       -5    1    5    5    0  503 -0.57386023242E+02 -0.18689204909E+02 -0.36856692837E+02  0.70872758170E+02  0.47000000000E+01 0.  1.
       11    1    6    6    0    0  0.45765947411E+02 -0.14156635309E+02  0.62565754963E+02  0.78799784008E+02  0.00000000000E+00 0. -1.
      -12    1    6    6    0    0 -0.19418901615E+02 -0.36641987722E+02  0.73717052787E+01  0.42119722730E+02  0.00000000000E+00 0.  1.
</event>
<event>
12   0  0.1523332E-01  0.1988133E+03  0.7957747E-01  0.1156956E+00
       21   -1    0    0  501  503  0.00000000000E+00  0.00000000000E+00  0.66939443357E+03  0.66939443357E+03  0.00000000000E+00 0. -1.
       21   -1    0    0  503  504  0.00000000000E+00  0.00000000000E+00 -0.79861453899E+02  0.79861453899E+02  0.00000000000E+00 0. -1.
        6    2    1    2  501    0 -0.98453174495E+02  0.10215317136E+02  0.48681289123E+03  0.52584552834E+03  0.17242200654E+03 0.  0.
       24    2    3    3    0    0 -0.69345697853E+02  0.17716374303E+02  0.13853250279E+03  0.17623884931E+03  0.82135144411E+02 0.  0.
       -6    2    1    2    0  504  0.98453174495E+02 -0.10215317136E+02  0.10272008844E+03  0.22341035912E+03  0.17194008178E+03 0.  0.
      -24    2    5    5    0    0  0.12787107081E+03 -0.34041411880E+02  0.62842588257E+02  0.16822521225E+03  0.82708540470E+02 0.  0.
        5    1    3    3  501    0 -0.29107476641E+02 -0.75010571676E+01  0.34828038844E+03  0.34960667903E+03  0.47000000000E+01 0. -1.
      -13    1    4    4    0    0 -0.90476584232E+01  0.41393616210E+02  0.39670626868E+02  0.58043520069E+02  0.00000000000E+00 0.  1.
       14    1    4    4    0    0 -0.60298039430E+02 -0.23677241907E+02  0.98861875924E+02  0.11819532924E+03  0.00000000000E+00 0. -1.
       -5    1    5    5    0  504 -0.29417896313E+02  0.23826094744E+02  0.39877500181E+02  0.55185146869E+02  0.47000000000E+01 0.  1.
        1    1    6    6  502    0  0.14065802305E+02 -0.26868566439E+02 -0.11126452480E+02  0.32304250522E+02  0.00000000000E+00 0. -1.
       -2    1    6    6    0  502  0.11380526850E+03 -0.71728454410E+01  0.73969040737E+02  0.13592096173E+03  0.00000000000E+00 0.  1.
</event>
<event>
12   0  0.1523332E-01  0.4981339E+03  0.7957747E-01  0.1024158E+00
        3   -1    0    0  502    0  0.00000000000E+00  0.00000000000E+00  0.33637761191E+03  0.33637761191E+03  0.00000000000E+00 0. -1.
       -3   -1    0    0    0  501  0.00000000000E+00  0.00000000000E+00 -0.93918532829E+03  0.93918532829E+03  0.00000000000E+00 0.  1.
        6    2    1    2  502    0  0.11144767565E+03 -0.45394301295E+03 -0.59669528656E+03  0.77711442263E+03  0.17139637526E+03 0.  0.
       24    2    3    3    0    0  0.56916860374E+02 -0.38195662339E+03 -0.54556075735E+03  0.67322756026E+03  0.80426468218E+02 0.  0.
       -6    2    1    2    0  501 -0.11144767565E+03  0.45394301295E+03 -0.61124298210E+01  0.49844851757E+03  0.17299918918E+03 0.  0.
      -24    2    5    5    0    0 -0.10433333473E+03  0.28911122369E+03 -0.62654568391E+02  0.32398007907E+03  0.81035500231E+02 0.  0.
        5    1    3    3  502    0  0.54530815277E+02 -0.71986389557E+02 -0.51134529215E+02  0.10388686238E+03  0.47000000000E+01 0. -1.
        2    1    4    4  503    0  0.15245384804E+02 -0.25486727285E+03 -0.30294573826E+03  0.39618918316E+03  0.00000000000E+00 0. -1.
       -1    1    4    4    0  503  0.41671475570E+02 -0.12708935055E+03 -0.24261501908E+03  0.27703837710E+03  0.00000000000E+00 0.  1.
       -5    1    5    5    0  501 -0.71143409237E+01  0.16483178926E+03  0.56542138570E+02  0.17446843849E+03  0.47000000000E+01 0.  1.
       13    1    6    6    0    0 -0.30189782429E+02  0.10827716584E+03  0.15536490768E+02  0.11347576900E+03  0.00000000000E+00 0. -1.
      -14    1    6    6    0    0 -0.74143552297E+02  0.18083405785E+03 -0.78191059160E+02  0.21050431007E+03  0.00000000000E+00 0.  1.
</event>
<event>
12   0  0.1523332E-01  0.1923841E+03  0.7957747E-01  0.1162350E+00
       21   -1    0    0  501  503  0.00000000000E+00  0.00000000000E+00  0.40740142396E+03  0.40740142396E+03  0.00000000000E+00 0.  1.
       21   -1    0    0  503  504  0.00000000000E+00  0.00000000000E+00 -0.44239066984E+03  0.44239066984E+03  0.00000000000E+00 0. -1.
        6    2    1    2  501    0 -0.83271785764E+02 -0.14235401504E+01  0.36454948503E+03  0.40634780037E+03  0.15901569439E+03 0.  0.
       24    2    3    3    0    0 -0.41004033297E+02 -0.18903962839E+02  0.33212854676E+03  0.35008648761E+03  0.10105684872E+03 0.  0.
       -6    2    1    2    0  504  0.83271785764E+02  0.14235401504E+01 -0.39953873090E+03  0.44344429343E+03  0.17342268339E+03 0.  0.
      -24    2    5    5    0    0  0.78042493157E+02 -0.28890806210E+02 -0.14199293915E+03  0.18402526956E+03  0.82328583410E+02 0.  0.
        5    1    3    3  501    0 -0.42267752467E+02  0.17480422689E+02  0.32420938265E+02  0.56261312764E+02  0.47000000000E+01 0. -1.
      -11    1    4    4    0    0 -0.68244642543E+02  0.15435376019E+01  0.15002349924E+03  0.16482343301E+03  0.00000000000E+00 0.  1.
       12    1    4    4    0    0  0.27240609246E+02 -0.20447500441E+02  0.18210504752E+03  0.18526305460E+03  0.00000000000E+00 0. -1.
       -5    1    5    5    0  504  0.52292926071E+01  0.30314346360E+02 -0.25754579175E+03  0.25941902387E+03  0.47000000000E+01 0.  1.
        1    1    6    6  502    0  0.63510886858E+02 -0.11136953153E+02 -0.14701999339E+03  0.16053829116E+03  0.00000000000E+00 0. -1.
       -2    1    6    6    0  502  0.14531606299E+02 -0.17753853057E+02  0.50270542317E+01  0.23486978398E+02  0.00000000000E+00 0.  1.
</event>
<event>
12   0  0.1523332E-01  0.1801379E+03  0.7957747E-01  0.1173294E+00
       21   -1    0    0  504  503  0.00000000000E+00  0.00000000000E+00  0.75735705761E+02  0.75735705761E+02  0.00000000000E+00 0. -1.
       21   -1    0    0  501  504  0.00000000000E+00  0.00000000000E+00 -0.41532742766E+03  0.41532742766E+03  0.00000000000E+00 0. -1.
        6    2    1    2  501    0 -0.49319332143E+02 -0.15124276485E+02 -0.17644472067E+03  0.24802689797E+03  0.16650364080E+03 0.  0.
       24    2    3    3    0    0  0.22352442538E+02 -0.38111349066E+02 -0.63104184147E+02  0.11188940860E+03  0.81147982631E+02 0.  0.
       -6    2    1    2    0  503  0.49319332143E+02  0.15124276485E+02 -0.16314700123E+03  0.24303623546E+03  0.17259353253E+03 0.  0.
      -24    2    5    5    0    0 -0.67229828238E+01  0.66997584462E+02 -0.85965841031E+02  0.13435963891E+03  0.78284812843E+02 0.  0.
        5    1    3    3  501    0 -0.71671774681E+02  0.22987072581E+02 -0.11334053652E+03  0.13613748937E+03  0.47000000000E+01 0. -1.
      -13    1    4    4    0    0  0.11620365207E+02 -0.55698073287E+02 -0.69959996187E+02  0.90175990828E+02  0.00000000000E+00 0.  1.
       14    1    4    4    0    0  0.10732077331E+02  0.17586724221E+02  0.68558120396E+01  0.21713417773E+02  0.00000000000E+00 0. -1.
       -5    1    5    5    0  503  0.56042314967E+02 -0.51873307977E+02 -0.77181160201E+02  0.10867659655E+03  0.47000000000E+01 0.  1.
        3    1    6    6  502    0  0.33826383851E+02  0.14198523404E+02 -0.30660157736E+02  0.47810747575E+02  0.00000000000E+00 0. -1.
       -4    1    6    6    0  502 -0.40549366675E+02  0.52799061058E+02 -0.55305683295E+02  0.86548891334E+02  0.00000000000E+00 0.  1.
</event>
<event>
12   0  0.1523332E-01  0.1773430E+03  0.7957747E-01  0.1175927E+00
       21   -1    0    0  504  503  0.00000000000E+00  0.00000000000E+00  0.17956291707E+03  0.17956291707E+03  0.00000000000E+00 0. -1.
       21   -1    0    0  501  504  0.00000000000E+00  0.00000000000E+00 -0.24568876988E+03  0.24568876988E+03  0.00000000000E+00 0. -1.
        6    2    1    2  501    0  0.38878406908E+02 -0.22048065115E+01 -0.14704640556E+03  0.23031918083E+03  0.17293897183E+03 0.  0.
       24    2    3    3    0    0 -0.45459547361E+01 -0.25098264141E+02 -0.15826772635E+03  0.17974454661E+03  0.81294773919E+02 0.  0.
       -6    2    1    2    0  503 -0.38878406908E+02  0.22048065115E+01  0.80920552749E+02  0.19493250612E+03  0.17301489644E+03 0.  0.
      -24    2    5    5    0    0 -0.58571406702E+02 -0.49509565800E+02  0.21446765086E+02  0.11356044726E+03  0.80958042590E+02 0.  0.
        5    1    3    3  501    0  0.43424361644E+02  0.22893457629E+02  0.11221320792E+02  0.50574634222E+02  0.47000000000E+01 0. -1.
        4    1    4    4  502    0 -0.42487249094E+02 -0.13308420961E+02 -0.70182621563E+02  0.83113661774E+02  0.00000000000E+00 0. -1.
       -3    1    4    4    0  502  0.37941294358E+02 -0.11789843179E+02 -0.88085104785E+02  0.96630884839E+02  0.00000000000E+00 0.  1.
       -5    1    5    5    0  503  0.19692999794E+02  0.51714372312E+02  0.59473787664E+02  0.81372058863E+02  0.47000000000E+01 0.  1.
       11    1    6    6    0    0  0.38261342356E+01 -0.14755409204E+02  0.37391172683E+02  0.40378969756E+02  0.00000000000E+00 0. -1.
      -12    1    6    6    0    0 -0.62397540938E+02 -0.34754156596E+02 -0.15944407597E+02  0.73181477502E+02  0.00000000000E+00 0.  1.
</event>
<event>
12   0  0.1523332E-01  0.2139137E+03  0.7957747E-01  0.1145121E+00
       21   -1    0    0  504  503  0.00000000000E+00  0.00000000000E+00  0.15886076403E+03  0.15886076403E+03  0.00000000000E+00 0. -1.
       21   -1    0    0  501  504  0.00000000000E+00  0.00000000000E+00 -0.30911821243E+03  0.30911821243E+03  0.00000000000E+00 0.  1.
        6    2    1    2  501    0 -0.10582747399E+03 -0.69203467569E+02 -0.12366878960E+02  0.21347376824E+03  0.17155038868E+03 0.  0.
       24    2    3    3    0    0 -0.62216902257E+02  0.28333653359E+02 -0.10936244083E+02  0.10651812957E+03  0.80949191806E+02 0.  0.
       -6    2    1    2    0  503  0.10582747399E+03  0.69203467569E+02 -0.13789056944E+03  0.25450520823E+03  0.17254135069E+03 0.  0.
      -24    2    5    5    0    0  0.14218037840E+03  0.47652136868E+02 -0.10184152351E+03  0.19875920185E+03  0.81532436850E+02 0.  0.
        5    1    3    3  501    0 -0.43610571731E+02 -0.97537120929E+02 -0.14306348765E+01  0.10695563866E+03  0.47000000000E+01 0. -1.
      -11    1    4    4    0    0 -0.27284540840E+02  0.15146149469E+02 -0.45808111263E+02  0.55427746392E+02  0.00000000000E+00 0.  1.
       12    1    4    4    0    0 -0.34932361418E+02  0.13187503890E+02  0.34871867180E+02  0.51090383182E+02  0.00000000000E+00 0. -1.
       -5    1    5    5    0  503 -0.36352904412E+02  0.21551330702E+02 -0.36049045932E+02  0.55746006375E+02  0.47000000000E+01 0.  1.
        3    1    6    6  502    0  0.20395211998E+02 -0.11468271813E+02  0.76810901275E+01  0.24626917719E+02  0.00000000000E+00 0. -1.
       -4    1    6    6    0  502  0.12178516640E+03  0.59120408680E+02 -0.10952261364E+03  0.17413228413E+03  0.00000000000E+00 0.  1.
</event>
<event>
12   0  0.1523332E-01  0.1856139E+03  0.7957747E-01  0.1168286E+00
       21   -1    0    0  501  503  0.00000000000E+00  0.00000000000E+00  0.69931902051E+03  0.69931902051E+03  0.00000000000E+00 0. -1.
       21   -1    0    0  503  504  0.00000000000E+00  0.00000000000E+00 -0.94178990972E+02  0.94178990972E+02  0.00000000000E+00 0. -1.
        6    2    1    2  501    0  0.39061236213E+02  0.40296675560E+01  0.58623854948E+03  0.61492125621E+03  0.18141250245E+03 0.  0.
       24    2    3    3    0    0 -0.32890739873E+02  0.43255515549E+02  0.38359534922E+03  0.39628431828E+03  0.83324837706E+02 0.  0.
       -6    2    1    2    0  504 -0.39061236213E+02 -0.40296675560E+01  0.18901480056E+02  0.17857675527E+03  0.17317728829E+03 0.  0.
      -24    2    5    5    0    0 -0.89506182599E+02  0.12266073683E+02  0.30787271324E+02  0.12404597651E+03  0.79232158406E+02 0.  0.
        5    1    3    3  501    0  0.71951976086E+02 -0.39225847993E+02  0.20264320026E+03  0.21863693793E+03  0.47000000000E+01 0. -1.
      -11    1    4    4    0    0 -0.56389582113E+02  0.31272017822E+02  0.18437022822E+03  0.19532051896E+03  0.00000000000E+00 0.  1.
       12    1    4    4    0    0  0.23498842239E+02  0.11983497727E+02  0.19922512099E+03  0.20096379933E+03  0.00000000000E+00 0. -1.
       -5    1    5    5    0  504  0.50444946386E+02 -0.16295741239E+02 -0.11885791268E+02  0.54530778763E+02  0.47000000000E+01 0.  1.
        1    1    6    6  502    0 -0.39030635013E+02  0.19193939340E+02 -0.23631113294E+02  0.49499770630E+02  0.00000000000E+00 0. -1.
       -2    1    6    6    0  502 -0.50475547586E+02 -0.69278656565E+01  0.54418384618E+02  0.74546205880E+02  0.00000000000E+00 0.  1.
</event>
<event>
12   0  0.1523332E-01  0.1764591E+03  0.7957747E-01  0.1176770E+00
       21   -1    0    0  501  503  0.00000000000E+00  0.00000000000E+00  0.50566535209E+03  0.50566535209E+03  0.00000000000E+00 0. -1.
       21   -1    0    0  503  504  0.00000000000E+00  0.00000000000E+00 -0.61005815593E+02  0.61005815593E+02  0.00000000000E+00 0. -1.
        6    2    1    2  501    0 -0.18577188886E+02  0.28556105861E+02  0.22367055998E+03  0.28387453290E+03  0.17145164887E+03 0.  0.
       24    2    3    3    0    0 -0.45381363900E+02  0.27682392625E+02  0.51726252672E+02  0.10978788210E+03  0.80944368481E+02 0.  0.
       -6    2    1    2    0  504  0.18577188886E+02 -0.28556105861E+02  0.22098897651E+03  0.28279663478E+03  0.17313938250E+03 0.  0.
      -24    2    5    5    0    0 -0.46954394651E+02  0.73640139112E+01  0.16553335647E+03  0.18961906645E+03  0.79342008920E+02 0.  0.
        5    1    3    3  501    0  0.26804175014E+02  0.87371323562E+00  0.17194430731E+03  0.17408665081E+03  0.47000000000E+01 0. -1.
        2    1    4    4  502    0  0.14488190476E+02  0.31825966313E+02  0.29639042865E+02  0.45839640673E+02  0.00000000000E+00 0. -1.
       -1    1    4    4    0  502 -0.59869554376E+02 -0.41435736879E+01  0.22087209807E+02  0.63948241423E+02  0.00000000000E+00 0.  1.
       -5    1    5    5    0  504  0.65531583536E+02 -0.35920119772E+02  0.55455620049E+02  0.93177568332E+02  0.47000000000E+01 0.  1.
       13    1    6    6    0    0 -0.62930370435E+01  0.60385353092E+01 -0.77235099884E+01  0.11649842508E+02  0.00000000000E+00 0. -1.
      -14    1    6    6    0    0 -0.40661357607E+02  0.13254786020E+01  0.17325686645E+03  0.17796922394E+03  0.00000000000E+00 0.  1.
</event>
<event>
12   0  0.1523332E-01  0.1741178E+03  0.7957747E-01  0.1179032E+00
       21   -1    0    0  504  503  0.00000000000E+00  0.00000000000E+00  0.84940350040E+02  0.84940350040E+02  0.00000000000E+00 0. -1.
       21   -1    0    0  501  504  0.00000000000E+00  0.00000000000E+00 -0.35775752090E+03  0.35775752090E+03  0.00000000000E+00 0. -1.
        6    2    1    2  501    0  0.14433497910E+02 -0.99361032445E+01 -0.11749446994E+03  0.21005224460E+03  0.17323378131E+03 0.  0.
       24    2    3    3    0    0 -0.55098538017E+02  0.15802507777E+02 -0.78542812420E+02  0.12616838596E+03  0.80398507997E+02 0.  0.
       -6    2    1    2    0  503 -0.14433497910E+02  0.99361032445E+01 -0.15532270092E+03  0.23264562634E+03  0.17231306980E+03 0.  0.
      -24    2    5    5    0    0 -0.72400822902E+02 -0.13367983391E+02 -0.11225401368E+03  0.15661738789E+03  0.80668832069E+02 0.  0.
        5    1    3    3  501    0  0.69532035927E+02 -0.25738611021E+02 -0.38951657522E+02  0.83883858645E+02  0.47000000000E+01 0. -1.
        4    1    4    4  502    0 -0.11445935160E+02  0.44681202608E+02 -0.41501686870E+02  0.62046831597E+02  0.00000000000E+00 0. -1.
       -3    1    4    4    0  502 -0.43652602858E+02 -0.28878694831E+02 -0.37041125549E+02  0.64121554358E+02  0.00000000000E+00 0.  1.
       -5    1    5    5    0  503  0.57967324992E+02  0.23304086636E+02 -0.43068687245E+02  0.76028238450E+02  0.47000000000E+01 0.  1.
       11    1    6    6    0    0 -0.56260750512E+02  0.29154247213E+02 -0.71617107322E+02  0.95625583606E+02  0.00000000000E+00 0. -1.
      -12    1    6    6    0    0 -0.16140072390E+02 -0.42522230604E+02 -0.40636906355E+02  0.60991804289E+02  0.00000000000E+00 0.  1.
</event>
<event>
12   0  0.1523332E-01  0.2958706E+03  0.7957747E-01  0.1095474E+00
       21   -1    0    0  504  503  0.00000000000E+00  0.00000000000E+00  0.98521124683E+02  0.98521124683E+02  0.00000000000E+00 0. -1.
       21   -1    0    0  501  504  0.00000000000E+00  0.00000000000E+00 -0.88413949841E+03  0.88413949841E+03  0.00000000000E+00 0.  1.
        6    2    1    2  501    0 -0.85722315856E+02 -0.22464385827E+03 -0.32178141670E+03  0.43713003845E+03  0.17241291102E+03 0.  0.
       24    2    3    3    0    0 -0.11112933020E+03 -0.18678948710E+03 -0.19394295140E+03  0.30132417332E+03  0.77086629877E+02 0.  0.
       -6    2    1    2    0  503  0.85722315856E+02  0.22464385827E+03 -0.46383695703E+03  0.54553058464E+03  0.15698954611E+03 0.  0.
      -24    2    5    5    0    0  0.43979640532E+02  0.12573307596E+03 -0.37507132538E+03  0.40614901786E+03  0.80842503732E+02 0.  0.
        5    1    3    3  501    0  0.25407014341E+02 -0.37854371165E+02 -0.12783846529E+03  0.13580586513E+03  0.47000000000E+01 0. -1.
        4    1    4    4  502    0 -0.50480722682E+02 -0.15292877586E+03 -0.13124841390E+03  0.20775384473E+03  0.00000000000E+00 0. -1.
       -3    1    4    4    0  502 -0.60648607515E+02 -0.33860711237E+02 -0.62694537507E+02  0.93570328589E+02  0.00000000000E+00 0.  1.
       -5    1    5    5    0  503  0.41742675324E+02  0.98910782304E+02 -0.88765631646E+02  0.13938156679E+03  0.47000000000E+01 0.  1.
       13    1    6    6    0    0 -0.16731061231E+02  0.74561611451E+02 -0.18433246548E+03  0.19954403058E+03  0.00000000000E+00 0. -1.
      -14    1    6    6    0    0  0.60710701763E+02  0.51171464512E+02 -0.19073885990E+03  0.20660498727E+03  0.00000000000E+00 0.  1.
</event>
<event>
12   0  0.1523332E-01  0.2191898E+03  0.7957747E-01  0.1141236E+00
       21   -1    0    0  504  503  0.00000000000E+00  0.00000000000E+00  0.37816611572E+03  0.37816611572E+03  0.00000000000E+00 0.  1.
       21   -1    0    0  501  504  0.00000000000E+00  0.00000000000E+00 -0.23040074743E+03  0.23040074743E+03  0.00000000000E+00 0.  1.
        6    2    1    2  501    0 -0.12393011384E+03  0.49968179606E+02 -0.12995908409E+03  0.25476603963E+03  0.17366887838E+03 0.  0.
       24    2    3    3    0    0 -0.15698491951E+03  0.39677555041E+02 -0.12310456127E+03  0.21916278676E+03  0.81602823267E+02 0.  0.
       -6    2    1    2    0  503  0.12393011384E+03 -0.49968179606E+02  0.27772445238E+03  0.35380082352E+03  0.17374883939E+03 0.  0.
      -24    2    5    5    0    0  0.70047733332E+02 -0.23939397131E+01  0.25743355373E+03  0.27896480413E+03  0.81467241661E+02 0.  0.
        5    1    3    3  501    0  0.33054805669E+02  0.10290624565E+02 -0.68545228193E+01  0.35603252869E+02  0.47000000000E+01 0. -1.
        4    1    4    4  502    0 -0.55531062465E+02 -0.18004556283E+01 -0.88002358360E+02  0.10407379889E+03  0.00000000000E+00 0. -1.
       -3    1    4    4    0  502 -0.10145385705E+03  0.41478010670E+02 -0.35102202914E+02  0.11508898787E+03  0.00000000000E+00 0.  1.
       -5    1    5    5    0  503  0.53882380510E+02 -0.47574239893E+02  0.20290898641E+02  0.74836019392E+02  0.47000000000E+01 0.  1.
       11    1    6    6    0    0  0.37913299867E+02  0.18745305680E+02  0.40195991916E+02  0.58348286676E+02  0.00000000000E+00 0. -1.
      -12    1    6    6    0    0  0.32134433465E+02 -0.21139245393E+02  0.21723756182E+03  0.22061651746E+03  0.00000000000E+00 0.  1.
</event>
<event>
12   0  0.1523332E-01  0.2874612E+03  0.7957747E-01  0.1099713E+00
       21   -1    0    0  504  503  0.00000000000E+00  0.00000000000E+00  0.86971684267E+03  0.86971684267E+03  0.00000000000E+00 0. -1.
       21   -1    0    0  501  504  0.00000000000E+00  0.00000000000E+00 -0.10158836260E+03  0.10158836260E+03  0.00000000000E+00 0.  1.
        6    2    1    2  501    0  0.16107942956E+02 -0.21905246286E+03  0.24223466595E+03  0.37591429599E+03  0.18544669646E+03 0.  0.
       24    2    3    3    0    0  0.61875979727E+02 -0.98447546468E+02  0.62195455526E+02  0.15438220726E+03  0.80280975059E+02 0.  0.
       -6    2    1    2    0  503 -0.16107942956E+02  0.21905246286E+03  0.52589381412E+03  0.59539090928E+03  0.17228634252E+03 0.  0.
      -24    2    5    5    0    0  0.13602525896E+02  0.19243427401E+03  0.29863207214E+03  0.36460696421E+03  0.80877347359E+02 0.  0.
        5    1    3    3  501    0 -0.45768036771E+02 -0.12060491639E+03  0.18003921042E+03  0.22153208873E+03  0.47000000000E+01 0. -1.
        2    1    4    4  502    0  0.78928648532E+02 -0.68321248930E+02  0.34167247911E+02  0.10984045450E+03  0.00000000000E+00 0. -1.
       -1    1    4    4    0  502 -0.17052668805E+02 -0.30126297538E+02  0.28028207615E+02  0.44541752759E+02  0.00000000000E+00 0.  1.
       -5    1    5    5    0  503 -0.29710468853E+02  0.26618188853E+02  0.22726174197E+03  0.23078394507E+03  0.47000000000E+01 0.  1.
       11    1    6    6    0    0 -0.14208321031E+02  0.13702425987E+03  0.25139158273E+03  0.28666226129E+03  0.00000000000E+00 0. -1.
      -12    1    6    6    0    0  0.27810846928E+02  0.55410014143E+02  0.47240489411E+02  0.77944702925E+02  0.00000000000E+00 0.  1.
</event>
<event>
12   0  0.1523332E-01  0.1940672E+03  0.7957747E-01  0.1160915E+00
       21   -1    0    0  501  503  0.00000000000E+00  0.00000000000E+00  0.40215522224E+03  0.40215522224E+03  0.00000000000E+00 0. -1.
       21   -1    0    0  503  504  0.00000000000E+00  0.00000000000E+00 -0.15842339880E+03  0.15842339880E+03  0.00000000000E+00 0.  1.
        6    2    1    2  501    0  0.76665041972E+02 -0.44764116975E+02  0.30110690478E+03  0.35820776317E+03  0.17252848652E+03 0.  0.
       24    2    3    3    0    0  0.80493561603E+02  0.27876685019E+02  0.14511783579E+03  0.18602755722E+03  0.79314202727E+02 0.  0.
       -6    2    1    2    0  504 -0.76665041972E+02  0.44764116975E+02 -0.57375081337E+02  0.20237085788E+03  0.17257088204E+03 0.  0.
      -24    2    5    5    0    0 -0.47412680399E+02  0.47888911552E+02  0.30050136401E+02  0.11000894096E+03  0.81594401046E+02 0.  0.
        5    1    3    3  501    0 -0.38285196306E+01 -0.72640801994E+02  0.15598906899E+03  0.17218020595E+03  0.47000000000E+01 0. -1.
      -11    1    4    4    0    0  0.25127069413E+02 -0.28008201988E+02  0.43444867731E+02  0.57474216202E+02  0.00000000000E+00 0.  1.
       12    1    4    4    0    0  0.55366492190E+02  0.55884887007E+02  0.10167296806E+03  0.12855334102E+03  0.00000000000E+00 0. -1.
       -5    1    5    5    0  504 -0.29252361574E+02 -0.31247945771E+01 -0.87425217739E+02  0.92361916911E+02  0.47000000000E+01 0.  1.
        1    1    6    6  502    0 -0.22386447911E+01  0.23545656867E+02  0.49715024707E+02  0.55054456399E+02  0.00000000000E+00 0. -1.
       -2    1    6    6    0  502 -0.45174035608E+02  0.24343254685E+02 -0.19664888306E+02  0.54954484565E+02  0.00000000000E+00 0.  1.
</event>
<event>
12   0  0.1523332E-01  0.2165923E+03  0.7957747E-01  0.1143134E+00
       21   -1    0    0  504  503  0.00000000000E+00  0.00000000000E+00  0.57096073466E+03  0.57096073466E+03  0.00000000000E+00 0. -1.
       21   -1    0    0  501  504  0.00000000000E+00  0.00000000000E+00 -0.10475167223E+03  0.10475167223E+03  0.00000000000E+00 0.  1.
        6    2    1    2  501    0 -0.14958398833E+02 -0.12924742974E+03  0.73687673431E+02  0.22739859399E+03  0.17132307359E+03 0.  0.
       24    2    3    3    0    0  0.66512807512E+01 -0.15381635484E+03  0.92020114275E+02  0.18959940458E+03  0.61453415171E+02 0.  0.
       -6    2    1    2    0  503  0.14958398833E+02  0.12924742974E+03  0.39252138900E+03  0.44831381291E+03  0.17315768027E+03 0.  0.
      -24    2    5    5    0    0  0.11550924126E+02  0.15051271615E+02  0.80319906321E+02  0.11583188979E+03  0.81275917197E+02 0.  0.
        5    1    3    3  501    0 -0.21609679584E+02  0.24568925101E+02 -0.18332440844E+02  0.37799189405E+02  0.47000000000E+01 0. -1.
        2    1    4    4  502    0  0.73327200413E+01 -0.87537398123E+02  0.86181625865E+02  0.12306030022E+03  0.00000000000E+00 0. -1.
       -1    1    4    4    0  502 -0.68143929015E+00 -0.66278956715E+02  0.58384884097E+01  0.66539104364E+02  0.00000000000E+00 0.  1.
       -5    1    5    5    0  503  0.34074747063E+01  0.11419615812E+03  0.31220148268E+03  0.33248192311E+03  0.47000000000E+01 0.  1.
       11    1    6    6    0    0  0.46164670255E+02  0.13877949259E+02  0.53604591119E+02  0.72091791796E+02  0.00000000000E+00 0. -1.
      -12    1    6    6    0    0 -0.34613746129E+02  0.11733223567E+01  0.26715315202E+02  0.43740097997E+02  0.00000000000E+00 0.  1.
</event>
<event>
12   0  0.1523332E-01  0.1829897E+03  0.7957747E-01  0.1170662E+00
       21   -1    0    0  504  503  0.00000000000E+00  0.00000000000E+00  0.16030216452E+03  0.16030216452E+03  0.00000000000E+00 0.  1.
       21   -1    0    0  501  504  0.00000000000E+00  0.00000000000E+00 -0.22463201486E+03  0.22463201486E+03  0.00000000000E+00 0.  1.
        6    2    1    2  501    0 -0.36804593445E+02  0.35777860863E+02 -0.90535247406E+02  0.20007758060E+03  0.17087941306E+03 0.  0.
       24    2    3    3    0    0 -0.51595743162E+02 -0.20234192720E+02 -0.10207895567E+03  0.14081987682E+03  0.79615207398E+02 0.  0.
       -6    2    1    2    0  503  0.36804593445E+02 -0.35777860863E+02  0.26205397065E+02  0.18485659878E+03  0.17564340537E+03 0.  0.
      -24    2    5    5    0    0 -0.23705228943E+02 -0.72706564410E+02  0.18492019816E+02  0.11339504310E+03  0.81659651089E+02 0.  0.
        5    1    3    3  501    0  0.14791149717E+02  0.56012053583E+02  0.11543708263E+02  0.59257703777E+02  0.47000000000E+01 0. -1.
      -13    1    4    4    0    0 -0.35387225470E+02 -0.35435664952E+02 -0.16998984051E+02  0.52885797109E+02  0.00000000000E+00 0.  1.
       14    1    4    4    0    0 -0.16208517692E+02  0.15201472232E+02 -0.85079971618E+02  0.87934079710E+02  0.00000000000E+00 0. -1.
       -5    1    5    5    0  503  0.60509822388E+02  0.36928703548E+02  0.77133772492E+01  0.71461555676E+02  0.47000000000E+01 0.  1.
        3    1    6    6  502    0 -0.37131260055E+02 -0.39598483055E+00 -0.15532483442E+01  0.37165842621E+02  0.00000000000E+00 0. -1.
       -4    1    6    6    0  502  0.13426031113E+02 -0.72310579580E+02  0.20045268160E+02  0.76229200483E+02  0.00000000000E+00 0.  1.
</event>
<event>
12   0  0.1523332E-01  0.2071287E+03  0.7957747E-01  0.1150302E+00
       21   -1    0    0  504  503  0.00000000000E+00  0.00000000000E+00  0.26089801229E+03  0.26089801229E+03  0.00000000000E+00 0.  1.
       21   -1    0    0  501  504  0.00000000000E+00  0.00000000000E+00 -0.21620556806E+03  0.21620556806E+03  0.00000000000E+00 0.  1.
        6    2    1    2  501    0  0.83329533699E+02 -0.84980620637E+02 -0.94926277266E+02  0.22784493517E+03  0.16951931836E+03 0.  0.
       24    2    3    3    0    0  0.87757935164E+02 -0.10822135753E+03 -0.11366134251E+03  0.19730258325E+03  0.81216323288E+02 0.  0.
       -6    2    1    2    0  503 -0.83329533699E+02  0.84980620637E+02  0.13961872150E+03  0.24925864519E+03  0.16873342211E+03 0.  0.
      -24    2    5    5    0    0 -0.75844879340E+02  0.74114680066E+01  0.31706888781E+02  0.11606687693E+03  0.81601578079E+02 0.  0.
        5    1    3    3  501    0 -0.44284014655E+01  0.23240736895E+02  0.18735065239E+02  0.30542351915E+02  0.47000000000E+01 0. -1.
      -11    1    4    4    0    0  0.89932005141E+02 -0.50546563143E+02 -0.66185863698E+02  0.12256952781E+03  0.00000000000E+00 0.  1.
       12    1    4    4    0    0 -0.21740699765E+01 -0.57674794389E+02 -0.47475478807E+02  0.74733055444E+02  0.00000000000E+00 0. -1.
       -5    1    5    5    0  503 -0.74846543592E+01  0.77569152631E+02  0.10791183272E+03  0.13319176825E+03  0.47000000000E+01 0.  1.
        1    1    6    6  502    0 -0.37728757222E+02 -0.36136456416E+02  0.24647688036E+02  0.57765137664E+02  0.00000000000E+00 0. -1.
       -2    1    6    6    0  502 -0.38116122118E+02  0.43547924422E+02  0.70592007452E+01  0.58301739270E+02  0.00000000000E+00 0.  1.
</event>
<event>
12   0  0.1523332E-01  0.2578029E+03  0.7957747E-01  0.1116020E+00
       21   -1    0    0  501  503  0.00000000000E+00  0.00000000000E+00  0.13512169420E+03  0.13512169420E+03  0.00000000000E+00 0. -1.
       21   -1    0    0  503  504  0.00000000000E+00  0.00000000000E+00 -0.50132844208E+03  0.50132844208E+03  0.00000000000E+00 0.  1.
        6    2    1    2  501    0 -0.19058728513E+03  0.51674110112E+01 -0.23027590217E+03  0.34567226997E+03  0.17352841762E+03 0.  0.
       24    2    3    3    0    0 -0.19196123211E+03 -0.37049041764E+02 -0.16737875286E+03  0.26976273167E+03  0.80836491500E+02 0.  0.
       -6    2    1    2    0  504  0.19058728513E+03 -0.51674110112E+01 -0.13593084571E+03  0.29077786631E+03  0.17240753269E+03 0.  0.
      -24    2    5    5    0    0  0.97494395228E+01  0.55376758917E+01 -0.31218936906E+01  0.66106477327E+02  0.65073824991E+02 0.  0.
        5    1    3    3  501    0  0.13739469827E+01  0.42216452776E+02 -0.62897149303E+02  0.75909538306E+02  0.47000000000E+01 0. -1.
      -13    1    4    4    0    0 -0.15192275642E+03 -0.86439637634E+01 -0.15878156961E+03  0.21992459815E+03  0.00000000000E+00 0.  1.
       14    1    4    4    0    0 -0.40038475696E+02 -0.28405078001E+02 -0.85971832561E+01  0.49838133514E+02  0.00000000000E+00 0. -1.
       -5    1    5    5    0  504  0.18083784561E+03 -0.10705086903E+02 -0.13280895202E+03  0.22467138898E+03  0.47000000000E+01 0.  1.
        3    1    6    6  502    0 -0.12869667368E+02  0.18908863682E+02  0.20543750167E+02  0.30744416320E+02  0.00000000000E+00 0. -1.
       -4    1    6    6    0  502  0.22619106891E+02 -0.13371187790E+02 -0.23665643858E+02  0.35362061007E+02  0.00000000000E+00 0.  1.
</event>
<event>
12   0  0.1523332E-01  0.2235417E+03  0.7957747E-01  0.1138120E+00
       21   -1    0    0  501  503  0.00000000000E+00  0.00000000000E+00  0.94528886275E+02  0.94528886275E+02  0.00000000000E+00 0. -1.
       21   -1    0    0  503  504  0.00000000000E+00  0.00000000000E+00 -0.68711491475E+03  0.68711491475E+03  0.00000000000E+00 0.  1.
        6    2    1    2  501    0  0.54524606857E+02 -0.13035300737E+03 -0.10810503156E+03  0.24807773625E+03  0.17289021399E+03 0.  0.
       24    2    3    3    0    0  0.62065178517E+02 -0.45017052849E+02 -0.11801314443E+03  0.16171023047E+03  0.79652212452E+02 0.  0.
       -6    2    1    2    0  504 -0.54524606857E+02  0.13035300737E+03 -0.48448099692E+03  0.53356606478E+03  0.17322260194E+03 0.  0.
      -24    2    5    5    0    0  0.17302356434E+02  0.30726245441E+02 -0.13350737577E+03  0.16169353677E+03  0.84125541599E+02 0.  0.
        5    1    3    3  501    0 -0.75405716603E+01 -0.85335954524E+02  0.99081128643E+01  0.86367505788E+02  0.47000000000E+01 0. -1.
        2    1    4    4  502    0  0.47659734226E+02  0.96937424084E+01 -0.30197057690E+02  0.57247543192E+02  0.00000000000E+00 0. -1.
       -1    1    4    4    0  502  0.14405444291E+02 -0.54710795257E+02 -0.87816086737E+02  0.10446268727E+03  0.00000000000E+00 0.  1.
       -5    1    5    5    0  504 -0.71826963290E+02  0.99626761932E+02 -0.35097362115E+03  0.37187252801E+03  0.47000000000E+01 0.  1.
       11    1    6    6    0    0  0.11416815626E+02 -0.28084860346E+02 -0.30954273791E+02  0.43327475413E+02  0.00000000000E+00 0. -1.
      -12    1    6    6    0    0  0.58855408074E+01  0.58811105787E+02 -0.10255310198E+03  0.11836606135E+03  0.00000000000E+00 0.  1.
</event>
<event>
12   0  0.1523332E-01  0.1963212E+03  0.7957747E-01  0.1159019E+00
        1   -1    0    0  502    0  0.00000000000E+00  0.00000000000E+00  0.19685474937E+03  0.19685474937E+03  0.00000000000E+00 0. -1.
       -1   -1    0    0    0  501  0.00000000000E+00  0.00000000000E+00 -0.20124933020E+03  0.20124933020E+03  0.00000000000E+00 0.  1.
        6    2    1    2  502    0  0.37728852875E+02 -0.84381185385E+02 -0.34964895044E+02  0.19859640101E+03  0.17226240397E+03 0.  0.
       24    2    3    3    0    0  0.13498655541E+02 -0.11352938371E+02 -0.76367799708E+02  0.11109487052E+03  0.78733261786E+02 0.  0.
       -6    2    1    2    0  501 -0.37728852875E+02  0.84381185385E+02  0.30570314218E+02  0.19950767856E+03  0.17414108908E+03 0.  0.
      -24    2    5    5    0    0 -0.40682363648E+01  0.96460640755E+02  0.71882484325E+02  0.14466485090E+03  0.80247253985E+02 0.  0.
        5    1    3    3  502    0  0.24230197334E+02 -0.73028247014E+02  0.41402904663E+02  0.87501530497E+02  0.47000000000E+01 0. -1.
        2    1    4    4  503    0  0.42200050196E+02 -0.76935814181E+01 -0.19147204601E+02  0.46975002668E+02  0.00000000000E+00 0. -1.
       -1    1    4    4    0  503 -0.28701394655E+02 -0.36593569530E+01 -0.57220595106E+02  0.64119867847E+02  0.00000000000E+00 0.  1.
       -5    1    5    5    0  501 -0.33660616510E+02 -0.12079455371E+02 -0.41312170107E+02  0.54842827652E+02  0.47000000000E+01 0.  1.
       13    1    6    6    0    0 -0.33046635599E+02  0.29802393169E+02  0.53696894064E+02  0.69739652962E+02  0.00000000000E+00 0. -1.
      -14    1    6    6    0    0  0.28978399235E+02  0.66658247586E+02  0.18185590260E+02  0.74925197941E+02  0.00000000000E+00 0.  1.
</event>
<event>
12   0  0.1523332E-01  0.1869825E+03  0.7957747E-01  0.1167063E+00
       21   -1    0    0  501  503  0.00000000000E+00  0.00000000000E+00  0.28387054932E+03  0.28387054932E+03  0.00000000000E+00 0. -1.
       21   -1    0    0  503  504  0.00000000000E+00  0.00000000000E+00 -0.12116118970E+03  0.12116118970E+03  0.00000000000E+00 0. -1.
        6    2    1    2  501    0  0.20743354782E+02  0.59054526871E+02  0.73158119932E+02  0.19771102140E+03  0.17268414391E+03 0.  0.
       24    2    3    3    0    0  0.56427238466E+02 -0.11744629173E+02  0.17419917531E+02  0.10068165853E+03  0.80693080760E+02 0.  0.
       -6    2    1    2    0  504 -0.20743354782E+02 -0.59054526871E+02  0.89551239688E+02  0.20732071762E+03  0.17619515179E+03 0.  0.
      -24    2    5    5    0    0 -0.25546713309E+00 -0.30437515456E+02 -0.24024796354E+02  0.88323688892E+02  0.79356005249E+02 0.  0.
        5    1    3    3  501    0 -0.35683883684E+02  0.70799156044E+02  0.55738202401E+02  0.97029362867E+02  0.47000000000E+01 0. -1.
      -11    1    4    4    0    0  0.27097919194E+02 -0.38717935583E+02 -0.14709674527E+02  0.49494952118E+02  0.00000000000E+00 0.  1.
       12    1    4    4    0    0  0.29329319272E+02  0.26973306410E+02  0.32129592057E+02  0.51186706413E+02  0.00000000000E+00 0. -1.
       -5    1    5    5    0  504 -0.20487887649E+02 -0.28617011415E+02  0.11357603604E+03  0.11899702873E+03  0.47000000000E+01 0.  1.
        3    1    6    6  502    0 -0.39228349980E+02 -0.99935945656E+01 -0.16308073797E+02  0.43642738748E+02  0.00000000000E+00 0. -1.
       -4    1    6    6    0  502  0.38972882847E+02 -0.20443920891E+02 -0.77167225579E+01  0.44680950144E+02  0.00000000000E+00 0.  1.
</event>
<event>
12   0  0.1523332E-01  0.1875491E+03  0.7957747E-01  0.1166561E+00
       21   -1    0    0  501  503  0.00000000000E+00  0.00000000000E+00  0.89704242523E+02  0.89704242523E+02  0.00000000000E+00 0. -1.
       21   -1    0    0  503  504  0.00000000000E+00  0.00000000000E+00 -0.40885019493E+03  0.40885019493E+03  0.00000000000E+00 0. -1.
        6    2    1    2  501    0 -0.52864639475E+02 -0.51931310584E+02 -0.21100425275E+03  0.28206127813E+03  0.17188437630E+03 0.  0.
       24    2    3    3    0    0  0.10105097585E+02 -0.29213995614E+02 -0.33758297868E+02  0.92536918993E+02  0.80423181763E+02 0.  0.
       -6    2    1    2    0  504  0.52864639475E+02  0.51931310584E+02 -0.10814169966E+03  0.21649315932E+03  0.17228792675E+03 0.  0.
      -24    2    5    5    0    0  0.83532827172E+02  0.10737347813E+02 -0.11630173585E+03  0.16428055073E+03  0.79805900359E+02 0.  0.
        5    1    3    3  501    0 -0.62969737060E+02 -0.22717314969E+02 -0.17724595488E+03  0.18952435914E+03  0.47000000000E+01 0. -1.
        2    1    4    4  502    0 -0.11207166623E+02 -0.43686489150E+02 -0.45642144476E+02  0.64166309465E+02  0.00000000000E+00 0. -1.
       -1    1    4    4    0  502  0.21312264208E+02  0.14472493536E+02  0.11883846608E+02  0.28370609528E+02  0.00000000000E+00 0.  1.
       -5    1    5    5    0  504 -0.30668187697E+02  0.41193962771E+02  0.81600361951E+01  0.52212608593E+02  0.47000000000E+01 0.  1.
       11    1    6    6    0    0  0.39210951511E+02  0.44956706189E+02 -0.66594248726E+02  0.89405805813E+02  0.00000000000E+00 0. -1.
      -12    1    6    6    0    0  0.44321875661E+02 -0.34219358376E+02 -0.49707487127E+02  0.74874744916E+02  0.00000000000E+00 0.  1.
</event>
<event>
12   0  0.1523332E-01  0.1994239E+03  0.7957747E-01  0.1156455E+00
       21   -1    0    0  501  503  0.00000000000E+00  0.00000000000E+00  0.48260222569E+03  0.48260222569E+03  0.00000000000E+00 0.  1.
       21   -1    0    0  503  504  0.00000000000E+00  0.00000000000E+00 -0.23477657612E+03  0.23477657612E+03  0.00000000000E+00 0.  1.
        6    2    1    2  501    0 -0.83789374207E+02  0.54432287728E+02  0.41303095604E+03  0.45841415371E+03  0.17194601624E+03 0.  0.
       24    2    3    3    0    0 -0.34291985481E+01 -0.99944984086E+01  0.27190262963E+03  0.28363468375E+03  0.80037144046E+02 0.  0.
       -6    2    1    2    0  504  0.83789374207E+02 -0.54432287728E+02 -0.16520530648E+03  0.25896464809E+03  0.17258726053E+03 0.  0.
      -24    2    5    5    0    0 -0.42177516078E+01  0.43342205514E+01 -0.30384265320E+02  0.87507481932E+02  0.81839971399E+02 0.  0.
        5    1    3    3  501    0 -0.80360175659E+02  0.64426786137E+02  0.14112832641E+03  0.17477946996E+03  0.47000000000E+01 0. -1.
      -13    1    4    4    0    0 -0.26691139915E+02  0.26342117276E+02  0.13298181204E+03  0.13816832642E+03  0.00000000000E+00 0.  1.
       14    1    4    4    0    0  0.23261941367E+02 -0.36336615685E+02  0.13892081759E+03  0.14546635733E+03  0.00000000000E+00 0. -1.
       -5    1    5    5    0  504  0.88007125815E+02 -0.58766508279E+02 -0.13482104116E+03  0.17145716616E+03  0.47000000000E+01 0.  1.
        3    1    6    6  502    0 -0.33079566185E+02 -0.21659291626E+02 -0.23571760792E+01  0.39609833271E+02  0.00000000000E+00 0. -1.
       -4    1    6    6    0  502  0.28861814577E+02  0.25993512177E+02 -0.28027089241E+02  0.47897648661E+02  0.00000000000E+00 0.  1.
</event>
<event>
12   0  0.1523332E-01  0.2039299E+03  0.7957747E-01  0.1152820E+00
       21   -1    0    0  501  503  0.00000000000E+00  0.00000000000E+00  0.94906145076E+02  0.94906145076E+02  0.00000000000E+00 0.  1.
       21   -1    0    0  503  504  0.00000000000E+00  0.00000000000E+00 -0.48927773929E+03  0.48927773929E+03  0.00000000000E+00 0.  1.
        6    2    1    2  501    0  0.10448159741E+03  0.22376225331E+02 -0.92193526885E+02  0.22380134065E+03  0.17369598158E+03 0.  0.
       24    2    3    3    0    0  0.35414248207E+02 -0.50981112456E+02 -0.48603907587E+02  0.11392075709E+03  0.82233547043E+02 0.  0.
       -6    2    1    2    0  504 -0.10448159741E+03 -0.22376225331E+02 -0.30217806733E+03  0.36038254372E+03  0.16476314450E+03 0.  0.
      -24    2    5    5    0    0 -0.13007325968E+03  0.81893433186E+01 -0.20577251441E+03  0.25595406198E+03  0.78638641464E+02 0.  0.
        5    1    3    3  501    0  0.69067349200E+02  0.73357337787E+02 -0.43589619298E+02  0.10988058356E+03  0.47000000000E+01 0. -1.
        4    1    4    4  502    0 -0.18413216096E+02 -0.28699288335E+02  0.53522538390E+01  0.34515826791E+02  0.00000000000E+00 0. -1.
       -3    1    4    4    0  502  0.53827464303E+02 -0.22281824121E+02 -0.53956161426E+02  0.79404930296E+02  0.00000000000E+00 0.  1.
       -5    1    5    5    0  504  0.25591662269E+02 -0.30565568649E+02 -0.96405552922E+02  0.10442848174E+03  0.47000000000E+01 0.  1.
       11    1    6    6    0    0 -0.51775895805E+02 -0.35287452707E+02 -0.85292295772E+02  0.10583347024E+03  0.00000000000E+00 0. -1.
      -12    1    6    6    0    0 -0.78297363871E+02  0.43476796025E+02 -0.12048021864E+03  0.15012059174E+03  0.00000000000E+00 0.  1.
</event>
<event>
12   0  0.1523332E-01  0.2493039E+03  0.7957747E-01  0.1121138E+00
       21   -1    0    0  501  503  0.00000000000E+00  0.00000000000E+00  0.18051501152E+03  0.18051501152E+03  0.00000000000E+00 0.  1.
       21   -1    0    0  503  504  0.00000000000E+00  0.00000000000E+00 -0.35122511369E+03  0.35122511369E+03  0.00000000000E+00 0. -1.
        6    2    1    2  501    0  0.14819774935E+03 -0.10155337505E+03 -0.46822295420E+02  0.25335079527E+03  0.17239094298E+03 0.  0.
       24    2    3    3    0    0  0.84263432094E+02 -0.33198131034E+02  0.37695730838E+02  0.12715482438E+03  0.80900799422E+02 0.  0.
       -6    2    1    2    0  504 -0.14819774935E+03  0.10155337505E+03 -0.12388780675E+03  0.27838932994E+03  0.17284897879E+03 0.  0.
      -24    2    5    5    0    0 -0.20542298388E+02  0.84684063967E+02 -0.75117144729E+02  0.14061721632E+03  0.80853196479E+02 0.  0.
        5    1    3    3  501    0  0.63934317258E+02 -0.68355244016E+02 -0.84518026258E+02  0.12619597090E+03  0.47000000000E+01 0. -1.
      -11    1    4    4    0    0  0.80737922168E+02 -0.53627024740E+02  0.42565337007E+02  0.10585970798E+03  0.00000000000E+00 0.  1.
       12    1    4    4    0    0  0.35255099256E+01  0.20428893706E+02 -0.48696061697E+01  0.21295116401E+02  0.00000000000E+00 0. -1.
       -5    1    5    5    0  504 -0.12765545096E+03  0.16869311083E+02 -0.48770662018E+02  0.13777211362E+03  0.47000000000E+01 0.  1.
        1    1    6    6  502    0 -0.36322794753E+02  0.49566005183E+02 -0.80997876552E+02  0.10167000686E+03  0.00000000000E+00 0. -1.
       -2    1    6    6    0  502  0.15780496365E+02  0.35118058784E+02  0.58807318229E+01  0.38947209465E+02  0.00000000000E+00 0.  1.
</event>
<event>
12   0  0.1523332E-01  0.1802364E+03  0.7957747E-01  0.1173202E+00
       21   -1    0    0  501  503  0.00000000000E+00  0.00000000000E+00  0.24674786257E+03  0.24674786257E+03  0.00000000000E+00 0. -1.
       21   -1    0    0  503  504  0.00000000000E+00  0.00000000000E+00 -0.13426844340E+03  0.13426844340E+03  0.00000000000E+00 0. -1.
        6    2    1    2  501    0  0.52913102778E+02  0.42392860268E+01  0.84886101403E+02  0.19922555832E+03  0.17224228542E+03 0.  0.
       24    2    3    3    0    0  0.10322229327E+02 -0.12090580641E+02 -0.28663053026E+02  0.76766799886E+02  0.69417867999E+02 0.  0.
       -6    2    1    2    0  504 -0.52913102778E+02 -0.42392860268E+01  0.27593317768E+02  0.18179074765E+03  0.17166454716E+03 0.  0.
      -24    2    5    5    0    0 -0.19958882861E+02  0.63324331206E+02  0.21485671518E+02  0.10622477431E+03  0.80085833132E+02 0.  0.
        5    1    3    3  501    0  0.42590873451E+02  0.16329866667E+02  0.11354915443E+03  0.12245875844E+03  0.47000000000E+01 0. -1.
        4    1    4    4  502    0  0.48188457708E+01 -0.31425050573E+02  0.98835606469E+01  0.33293240292E+02  0.00000000000E+00 0. -1.
       -3    1    4    4    0  502  0.55033835560E+01  0.19334469932E+02 -0.38546613673E+02  0.43473559594E+02  0.00000000000E+00 0.  1.
       -5    1    5    5    0  504 -0.32954219916E+02 -0.67563617233E+02  0.61076462503E+01  0.75565973339E+02  0.47000000000E+01 0.  1.
       11    1    6    6    0    0 -0.47326923750E+02  0.19249986220E+02  0.31108737122E+01  0.51186689836E+02  0.00000000000E+00 0. -1.
      -12    1    6    6    0    0  0.27368040888E+02  0.44074344986E+02  0.18374797806E+02  0.55038084473E+02  0.00000000000E+00 0.  1.
</event>
<event>
12   0  0.1523332E-01  0.2344451E+03  0.7957747E-01  0.1130643E+00
       21   -1    0    0  501  503  0.00000000000E+00  0.00000000000E+00  0.48827344492E+03  0.48827344492E+03  0.00000000000E+00 0. -1.
       21   -1    0    0  503  504  0.00000000000E+00  0.00000000000E+00 -0.13969945121E+03  0.13969945121E+03  0.00000000000E+00 0.  1.
        6    2    1    2  501    0  0.10376922902E+03 -0.11831356502E+03  0.31365419133E+03  0.39159091414E+03  0.17377669503E+03 0.  0.
       24    2    3    3    0    0  0.44004522958E+02  0.95385570950E+01  0.16071640825E+03  0.18343222296E+03  0.76093589918E+02 0.  0.
       -6    2    1    2    0  504 -0.10376922902E+03  0.11831356502E+03  0.34919802387E+02  0.23638198200E+03  0.17288983849E+03 0.  0.
      -24    2    5    5    0    0 -0.30957233379E+01  0.34255658016E+01  0.66281393164E+01  0.80957031265E+02  0.80553030212E+02 0.  0.
        5    1    3    3  501    0  0.59764706064E+02 -0.12785212211E+03  0.15293778307E+03  0.20815869117E+03  0.47000000000E+01 0. -1.
      -13    1    4    4    0    0  0.27796789021E+02  0.22686852830E+02  0.19803371672E+02  0.40982048519E+02  0.00000000000E+00 0.  1.
       14    1    4    4    0    0  0.16207733937E+02 -0.13148295735E+02  0.14091303658E+03  0.14245017444E+03  0.00000000000E+00 0. -1.
       -5    1    5    5    0  504 -0.10067350568E+03  0.11488799921E+03  0.28291663071E+02  0.15542495073E+03  0.47000000000E+01 0.  1.
        3    1    6    6  502    0 -0.10387660358E+02 -0.19188289596E+02 -0.30122207475E+02  0.37194641126E+02  0.00000000000E+00 0. -1.
       -4    1    6    6    0  502  0.72919370199E+01  0.22613855397E+02  0.36750346791E+02  0.43762390139E+02  0.00000000000E+00 0.  1.
</event>
<event>
12   0  0.1523332E-01  0.2035079E+03  0.7957747E-01  0.1153156E+00
       21   -1    0    0  504  503  0.00000000000E+00  0.00000000000E+00  0.27267601185E+03  0.27267601185E+03  0.00000000000E+00 0. -1.
       21   -1    0    0  501  504  0.00000000000E+00  0.00000000000E+00 -0.15265633955E+03  0.15265633955E+03  0.00000000000E+00 0. -1.
        6    2    1    2  501    0 -0.10026783810E+03 -0.32816588106E+02  0.41254781348E+02  0.20764734276E+03  0.17402555605E+03 0.  0.
       24    2    3    3    0    0 -0.84179577131E+02 -0.44825490710E+02 -0.34289414427E+02  0.12933986292E+03  0.80358635976E+02 0.  0.
       -6    2    1    2    0  503  0.10026783810E+03  0.32816588106E+02  0.78764890954E+02  0.21768500865E+03  0.17335595499E+03 0.  0.
      -24    2    5    5    0    0 -0.95424704604E+01  0.24363472405E+02  0.36627948729E+01  0.84297700904E+02  0.80050289077E+02 0.  0.
        5    1    3    3  501    0 -0.16088260967E+02  0.12008902604E+02  0.75544195776E+02  0.78307479835E+02  0.47000000000E+01 0. -1.
        4    1    4    4  502    0 -0.54905484480E+02  0.80130990863E+01 -0.40383966194E+02  0.68627157223E+02  0.00000000000E+00 0. -1.
       -3    1    4    4    0  502 -0.29274092651E+02 -0.52838589796E+02  0.60945517669E+01  0.60712705700E+02  0.00000000000E+00 0.  1.
       -5    1    5    5    0  503  0.10981030856E+03  0.84531157015E+01  0.75102096081E+02  0.13338730774E+03  0.47000000000E+01 0.  1.
       13    1    6    6    0    0  0.33840782532E+02 -0.10958112275E+01 -0.55357839177E-01  0.33858565078E+02  0.00000000000E+00 0. -1.
      -14    1    6    6    0    0 -0.43383252993E+02  0.25459283632E+02  0.37181527121E+01  0.50439135826E+02  0.00000000000E+00 0.  1.
</event>
<event>
12   0  0.1523332E-01  0.2655422E+03  0.7957747E-01  0.1111543E+00
       21   -1    0    0  501  503  0.00000000000E+00  0.00000000000E+00  0.39745266723E+03  0.39745266723E+03  0.00000000000E+00 0. -1.
       21   -1    0    0  503  504  0.00000000000E+00  0.00000000000E+00 -0.29927729743E+03  0.29927729743E+03  0.00000000000E+00 0.  1.
        6    2    1    2  501    0  0.59954963644E+02 -0.19264231291E+03  0.27176202715E+03  0.37995693665E+03  0.17264708489E+03 0.  0.
       24    2    3    3    0    0 -0.35753297715E+02 -0.62053807573E+02  0.67793143963E+02  0.11949806403E+03  0.67490025980E+02 0.  0.
       -6    2    1    2    0  504 -0.59954963644E+02  0.19264231291E+03 -0.17358665734E+03  0.31677302801E+03  0.17177649802E+03 0.  0.
      -24    2    5    5    0    0 -0.50846215118E+02  0.51003946670E+02 -0.22331225959E+02  0.10930088140E+03  0.79128116716E+02 0.  0.
        5    1    3    3  501    0  0.95708261359E+02 -0.13058850534E+03  0.20396888319E+03  0.26045887262E+03  0.47000000000E+01 0. -1.
        2    1    4    4  502    0 -0.34790618448E+02 -0.30278526351E+02  0.73915046770E+02  0.87124109344E+02  0.00000000000E+00 0. -1.
       -1    1    4    4    0  502 -0.96267926734E+00 -0.31775281222E+02 -0.61219028062E+01  0.32373954687E+02  0.00000000000E+00 0.  1.
       -5    1    5    5    0  504 -0.91087485262E+01  0.14163836624E+03 -0.15125543138E+03  0.20747214660E+03  0.47000000000E+01 0.  1.
       13    1    6    6    0    0 -0.48215467224E+02  0.69603528466E+02 -0.68319493238E+01  0.84947383633E+02  0.00000000000E+00 0. -1.
      -14    1    6    6    0    0 -0.26307478945E+01 -0.18599581796E+02 -0.15499276636E+02  0.24353497771E+02  0.00000000000E+00 0.  1.
</event>
<event>
12   0  0.1523332E-01  0.2149637E+03  0.7957747E-01  0.1144338E+00
       21   -1    0    0  504  503  0.00000000000E+00  0.00000000000E+00  0.14435369420E+03  0.14435369420E+03  0.00000000000E+00 0. -1.
       21   -1    0    0  501  504  0.00000000000E+00  0.00000000000E+00 -0.10179916981E+04  0.10179916981E+04  0.00000000000E+00 0. -1.
        6    2    1    2  501    0  0.10419125458E+03  0.72515342472E+02 -0.91815813393E+03  0.94281993712E+03  0.17257109405E+03 0.  0.
       24    2    3    3    0    0  0.26605667503E+02  0.26915219720E+01 -0.21684464109E+03  0.23376592333E+03  0.83125223046E+02 0.  0.
       -6    2    1    2    0  503 -0.10419125458E+03 -0.72515342472E+02  0.44520130071E+02  0.21952545515E+03  0.17347936779E+03 0.  0.
      -24    2    5    5    0    0 -0.11908584938E+02 -0.65317068908E+02 -0.21120160637E+02  0.10595325774E+03  0.79824167734E+02 0.  0.
        5    1    3    3  501    0  0.77585587081E+02  0.69823820500E+02 -0.70131349284E+03  0.70905401379E+03  0.47000000000E+01 0. -1.
        4    1    4    4  502    0  0.55505175847E+02 -0.84065441266E+01 -0.13157256788E+03  0.14304836646E+03  0.00000000000E+00 0. -1.
       -3    1    4    4    0  502 -0.28899508344E+02  0.11098066099E+02 -0.85272073212E+02  0.90717556865E+02  0.00000000000E+00 0.  1.
       -5    1    5    5    0  503 -0.92282669646E+02 -0.71982735646E+01  0.65640290708E+02  0.11357219741E+03  0.47000000000E+01 0.  1.
       13    1    6    6    0    0 -0.22755142806E+02 -0.42253082666E+02  0.24359258582E+02  0.53819076521E+02  0.00000000000E+00 0. -1.
      -14    1    6    6    0    0  0.10846557867E+02 -0.23063986242E+02 -0.45479419218E+02  0.52134181219E+02  0.00000000000E+00 0.  1.
</event>
<event>
12   0  0.1523332E-01  0.1818034E+03  0.7957747E-01  0.1171750E+00
       21   -1    0    0  504  503  0.00000000000E+00  0.00000000000E+00  0.23007238332E+03  0.23007238332E+03  0.00000000000E+00 0. -1.
       21   -1    0    0  501  504  0.00000000000E+00  0.00000000000E+00 -0.14176048307E+03  0.14176048307E+03  0.00000000000E+00 0. -1.
        6    2    1    2  501    0  0.39558939626E+02 -0.31496147095E+02  0.48907303544E+02  0.18826680161E+03  0.17462974335E+03 0.  0.
       24    2    3    3    0    0  0.54293941532E+02 -0.55873294014E+02 -0.20019865757E+02  0.11353788993E+03  0.80127400762E+02 0.  0.
       -6    2    1    2    0  503 -0.39558939626E+02  0.31496147095E+02  0.39404596701E+02  0.18356606478E+03  0.17200831640E+03 0.  0.
      -24    2    5    5    0    0 -0.66405909158E+02  0.68671509626E+02  0.27588005319E+01  0.12467827547E+03  0.80072094948E+02 0.  0.
        5    1    3    3  501    0 -0.14735001907E+02  0.24377146919E+02  0.68927169301E+02  0.74728911681E+02  0.47000000000E+01 0. -1.
      -13    1    4    4    0    0 -0.14810697575E+02 -0.19380033800E+02  0.14201858753E+02  0.28224727896E+02  0.00000000000E+00 0.  1.
       14    1    4    4    0    0  0.69104639107E+02 -0.36493260214E+02 -0.34221724510E+02  0.85313162030E+02  0.00000000000E+00 0. -1.
       -5    1    5    5    0  503  0.26846969533E+02 -0.37175362531E+02  0.36645796169E+02  0.58887789305E+02  0.47000000000E+01 0.  1.
        3    1    6    6  502    0 -0.67225608431E+02  0.15736744076E+02 -0.11157496518E+02  0.69938667928E+02  0.00000000000E+00 0. -1.
       -4    1    6    6    0  502  0.81969927223E+00  0.52934765550E+02  0.13916297050E+02  0.54739607546E+02  0.00000000000E+00 0.  1.
</event>
<event>
12   0  0.1523332E-01  0.1997570E+03  0.7957747E-01  0.1156183E+00
       -1   -1    0    0    0  501  0.00000000000E+00  0.00000000000E+00  0.11371539878E+03  0.11371539878E+03  0.00000000000E+00 0.  1.
        1   -1    0    0  502    0  0.00000000000E+00  0.00000000000E+00 -0.40151875217E+03  0.40151875217E+03  0.00000000000E+00 0. -1.
        6    2    1    2  502    0 -0.50756405791E+02  0.86141442147E+02 -0.52043542960E+02  0.20582240534E+03  0.17221431819E+03 0.  0.
       24    2    3    3    0    0 -0.22206861131E+02  0.11806989056E+03 -0.68888916520E+02  0.15955839202E+03  0.79243636378E+02 0.  0.
       -6    2    1    2    0  501  0.50756405791E+02 -0.86141442147E+02 -0.23575981043E+03  0.30941174561E+03  0.17365592222E+03 0.  0.
      -24    2    5    5    0    0  0.44927268098E+01 -0.99409944830E+02 -0.90142066203E+02  0.15597446660E+03  0.79372037936E+02 0.  0.
        5    1    3    3  502    0 -0.28549544660E+02 -0.31928448409E+02  0.16845373560E+02  0.46264013321E+02  0.47000000000E+01 0. -1.
        2    1    4    4  503    0 -0.34704953494E+02  0.60053259884E+02 -0.72200359319E+02  0.10011852828E+03  0.00000000000E+00 0. -1.
       -1    1    4    4    0  503  0.12498092363E+02  0.58016630672E+02  0.33114427993E+01  0.59439863733E+02  0.00000000000E+00 0.  1.
       -5    1    5    5    0  501  0.46263678981E+02  0.13268502683E+02 -0.14561774423E+03  0.15343727901E+03  0.47000000000E+01 0.  1.
       11    1    6    6    0    0 -0.23936607755E+02 -0.21181053294E+02 -0.59006453996E+02  0.67107077292E+02  0.00000000000E+00 0. -1.
      -12    1    6    6    0    0  0.28429334565E+02 -0.78228891535E+02 -0.31135612207E+02  0.88867389307E+02  0.00000000000E+00 0.  1.
</event>
<event>
12   0  0.1523332E-01  0.2066891E+03  0.7957747E-01  0.1150645E+00
       21   -1    0    0  504  503  0.00000000000E+00  0.00000000000E+00  0.23110414572E+03  0.23110414572E+03  0.00000000000E+00 0. -1.
       21   -1    0    0  501  504  0.00000000000E+00  0.00000000000E+00 -0.20285281367E+03  0.20285281367E+03  0.00000000000E+00 0. -1.
        6    2    1    2  501    0  0.18602095886E+02 -0.10066822796E+03 -0.58216793564E+02  0.21473138197E+03  0.17955567732E+03 0.  0.
       24    2    3    3    0    0  0.75099776917E+02 -0.37321020655E+02 -0.56632024519E+02  0.12970516173E+03  0.81138201249E+02 0.  0.
       -6    2    1    2    0  503 -0.18602095886E+02  0.10066822796E+03  0.86468125611E+02  0.21922557743E+03  0.17350212379E+03 0.  0.
      -24    2    5    5    0    0  0.42870197788E+02  0.47521790313E+02  0.25179337957E+01  0.10229349702E+03  0.79758668043E+02 0.  0.
        5    1    3    3  501    0 -0.56497681032E+02 -0.63347207302E+02 -0.15847690449E+01  0.85026220237E+02  0.47000000000E+01 0. -1.
        2    1    4    4  502    0  0.77393097051E+02 -0.14631174753E+02 -0.68151379527E+02  0.10415552447E+03  0.00000000000E+00 0. -1.
       -1    1    4    4    0  502 -0.22933201333E+01 -0.22689845903E+02  0.11519355008E+02  0.25549637260E+02  0.00000000000E+00 0.  1.
       -5    1    5    5    0  503 -0.61472293673E+02  0.53146437644E+02  0.83950191816E+02  0.11693208041E+03  0.47000000000E+01 0.  1.
       13    1    6    6    0    0 -0.82556052585E+01  0.48684607388E+02  0.10641570495E+02  0.50513256055E+02  0.00000000000E+00 0. -1.
      -14    1    6    6    0    0  0.51125803046E+02 -0.11628170747E+01 -0.81236366990E+01  0.51780240960E+02  0.00000000000E+00 0.  1.
</event>
<event>
12   0  0.1523332E-01  0.3125669E+03  0.7957747E-01  0.1087494E+00
       21   -1    0    0  501  503  0.00000000000E+00  0.00000000000E+00  0.42485175114E+03  0.42485175114E+03  0.00000000000E+00 0.  1.
       21   -1    0    0  503  504  0.00000000000E+00  0.00000000000E+00 -0.28738163409E+03  0.28738163409E+03  0.00000000000E+00 0.  1.
        6    2    1    2  501    0 -0.77612334344E+01 -0.25780690431E+03 -0.92423583151E+02  0.32594504503E+03  0.17655995299E+03 0.  0.
       24    2    3    3    0    0 -0.61212467427E+02 -0.19185594925E+03 -0.10218860776E+03  0.24036462323E+03  0.82322348813E+02 0.  0.
       -6    2    1    2    0  504  0.77612334344E+01  0.25780690431E+03  0.22989370019E+03  0.38628834020E+03  0.17275106868E+03 0.  0.
      -24    2    5    5    0    0 -0.80496761908E+01  0.39456723020E+02  0.51903410007E+02  0.10410148733E+03  0.80755962104E+02 0.  0.
        5    1    3    3  501    0  0.53451233993E+02 -0.65950955061E+02  0.97650246085E+01  0.85580421794E+02  0.47000000000E+01 0. -1.
        4    1    4    4  502    0 -0.51683887032E+02 -0.41995368512E+02 -0.41064805217E+02  0.78237800217E+02  0.00000000000E+00 0. -1.
       -3    1    4    4    0  502 -0.95285803951E+01 -0.14986058074E+03 -0.61123802543E+02  0.16212682302E+03  0.00000000000E+00 0.  1.
       -5    1    5    5    0  504  0.15810909625E+02  0.21835018130E+03  0.17799029019E+03  0.28218685287E+03  0.47000000000E+01 0.  1.
       13    1    6    6    0    0 -0.42589069020E+02  0.19541357350E+02  0.42219011529E+02  0.63072485138E+02  0.00000000000E+00 0. -1.
      -14    1    6    6    0    0  0.34539392829E+02  0.19915365670E+02  0.96843984781E+01  0.41029002189E+02  0.00000000000E+00 0.  1.
</event>
<event>
12   0  0.1523332E-01  0.2556293E+03  0.7957747E-01  0.1117308E+00
       21   -1    0    0  501  503  0.00000000000E+00  0.00000000000E+00  0.24685604922E+03  0.24685604922E+03  0.00000000000E+00 0.  1.
       21   -1    0    0  503  504  0.00000000000E+00  0.00000000000E+00 -0.30285895535E+03  0.30285895535E+03  0.00000000000E+00 0.  1.
        6    2    1    2  501    0  0.16452633888E+03 -0.87413657732E+02 -0.12698354236E+03  0.28441404788E+03  0.17336800990E+03 0.  0.
       24    2    3    3    0    0  0.14728380957E+03 -0.92349600010E+01 -0.10987378360E+03  0.20241375861E+03  0.84387654908E+02 0.  0.
       -6    2    1    2    0  504 -0.16452633888E+03  0.87413657732E+02  0.70980636230E+02  0.26530095670E+03  0.17503223464E+03 0.  0.
      -24    2    5    5    0    0 -0.17490671932E+02  0.54702955315E+02  0.29961502081E+02  0.10911473204E+03  0.87806584133E+02 0.  0.
        5    1    3    3  501    0  0.17242529301E+02 -0.78178697731E+02 -0.17109758757E+02  0.82000289270E+02  0.47000000000E+01 0. -1.
      -11    1    4    4    0    0  0.90021048487E+02  0.28683024850E+02 -0.34852759525E+02  0.10070362422E+03  0.00000000000E+00 0.  1.
       12    1    4    4    0    0  0.57262761087E+02 -0.37917984851E+02 -0.75021024077E+02  0.10171013438E+03  0.00000000000E+00 0. -1.
       -5    1    5    5    0  504 -0.14703566694E+03  0.32710702417E+02  0.41019134149E+02  0.15618622466E+03  0.47000000000E+01 0.  1.
        1    1    6    6  502    0  0.12880166822E+02 -0.18112248045E+02  0.19428102430E+02  0.29519542520E+02  0.00000000000E+00 0. -1.
       -2    1    6    6    0  502 -0.30370838754E+02  0.72815203360E+02  0.10533399651E+02  0.79595189523E+02  0.00000000000E+00 0.  1.
</event>
<event>
12   0  0.1523332E-01  0.2026627E+03  0.7957747E-01  0.1153832E+00
       21   -1    0    0  501  503  0.00000000000E+00  0.00000000000E+00  0.19272038553E+03  0.19272038553E+03  0.00000000000E+00 0.  1.
       21   -1    0    0  503  504  0.00000000000E+00  0.00000000000E+00 -0.24010276660E+03  0.24010276660E+03  0.00000000000E+00 0.  1.
        6    2    1    2  501    0  0.10533594580E+03 -0.43106350076E+01  0.53790805260E+02  0.20631007684E+03  0.16898566218E+03 0.  0.
       24    2    3    3    0    0  0.13894809761E+03 -0.17566047993E+02  0.35802564140E+02  0.16567573740E+03  0.80941253337E+02 0.  0.
       -6    2    1    2    0  504 -0.10533594580E+03  0.43106350076E+01 -0.10117318633E+03  0.22651307529E+03  0.17308355380E+03 0.  0.
      -24    2    5    5    0    0 -0.19812307084E+02  0.52040997274E+02 -0.31464919723E+02  0.10620591551E+03  0.84787159450E+02 0.  0.
        5    1    3    3  501    0 -0.33612151814E+02  0.13255412985E+02  0.17988241120E+02  0.40634339438E+02  0.47000000000E+01 0. -1.
      -11    1    4    4    0    0  0.42446809546E+02  0.17245521364E+02  0.43001481950E+02  0.62835237706E+02  0.00000000000E+00 0.  1.
       12    1    4    4    0    0  0.96501288066E+02 -0.34811569357E+02 -0.71989178096E+01  0.10284049969E+03  0.00000000000E+00 0. -1.
       -5    1    5    5    0  504 -0.85523638714E+02 -0.47730362266E+02 -0.69708266610E+02  0.12030715978E+03  0.47000000000E+01 0.  1.
        1    1    6    6  502    0 -0.43607208040E+02  0.29839094217E+01 -0.93977641018E+00  0.43719280508E+02  0.00000000000E+00 0. -1.
       -2    1    6    6    0  502  0.23794900956E+02  0.49057087852E+02 -0.30525143313E+02  0.62486635005E+02  0.00000000000E+00 0.  1.
</event>
<event>
12   0  0.1523332E-01  0.1765133E+03  0.7957747E-01  0.1176719E+00
       21   -1    0    0  501  503  0.00000000000E+00  0.00000000000E+00  0.33787808324E+02  0.33787808324E+02  0.00000000000E+00 0.  1.
       21   -1    0    0  503  504  0.00000000000E+00  0.00000000000E+00 -0.10414877611E+04  0.10414877611E+04  0.00000000000E+00 0.  1.
        6    2    1    2  501    0 -0.33879661416E+02  0.69792478766E+01 -0.32174528708E+03  0.36697426673E+03  0.17307091416E+03 0.  0.
       24    2    3    3    0    0 -0.22494766481E+02  0.50477812350E+02 -0.10100732254E+03  0.14165431659E+03  0.82519344051E+02 0.  0.
       -6    2    1    2    0  504  0.33879661416E+02 -0.69792478766E+01 -0.68595466572E+03  0.70830130272E+03  0.17309070064E+03 0.  0.
      -24    2    5    5    0    0 -0.29592643572E+02  0.39725307501E+02 -0.31801392893E+03  0.33198690652E+03  0.81416352777E+02 0.  0.
        5    1    3    3  501    0 -0.11384894935E+02 -0.43498564474E+02 -0.22073796454E+03  0.22531995014E+03  0.47000000000E+01 0. -1.
        2    1    4    4  502    0 -0.46868156007E+02  0.33130340144E+02 -0.95224103167E+02  0.11118396157E+03  0.00000000000E+00 0. -1.
       -1    1    4    4    0  502  0.24373389526E+02  0.17347472207E+02 -0.57832193757E+01  0.30470355024E+02  0.00000000000E+00 0.  1.
       -5    1    5    5    0  504  0.63472304988E+02 -0.46704555378E+02 -0.36794073679E+03  0.37631439620E+03  0.47000000000E+01 0.  1.
       11    1    6    6    0    0 -0.36869879539E+02 -0.12280037128E+02 -0.90487246171E+02  0.98479079244E+02  0.00000000000E+00 0. -1.
      -12    1    6    6    0    0  0.72772359673E+01  0.52005344629E+02 -0.22752668276E+03  0.23350782728E+03  0.00000000000E+00 0.  1.
</event>
<event>
12   0  0.1523332E-01  0.2569040E+03  0.7957747E-01  0.1116551E+00
        2   -1    0    0  502    0  0.00000000000E+00  0.00000000000E+00  0.97871665635E+03  0.97871665635E+03  0.00000000000E+00 0. -1.
       -2   -1    0    0    0  501  0.00000000000E+00  0.00000000000E+00 -0.89593184003E+02  0.89593184003E+02  0.00000000000E+00 0.  1.
        6    2    1    2  502    0 -0.18459507495E+03 -0.34322903490E+02  0.18190148958E+03  0.31663728645E+03  0.17865501913E+03 0.  0.
       24    2    3    3    0    0 -0.29404870907E+02 -0.59027981845E+02  0.81493744392E+02  0.13009467572E+03  0.77035350330E+02 0.  0.
       -6    2    1    2    0  501  0.18459507495E+03  0.34322903490E+02  0.70722198277E+03  0.75167255390E+03  0.17203282237E+03 0.  0.
      -24    2    5    5    0    0  0.14651345036E+03 -0.13999652828E+02  0.33585393400E+03  0.37521326364E+03  0.79529534183E+02 0.  0.
        5    1    3    3  502    0 -0.15519020405E+03  0.24705078355E+02  0.10040774519E+03  0.18654261074E+03  0.47000000000E+01 0. -1.
      -11    1    4    4    0    0 -0.35934937732E+02 -0.50400298759E+02  0.94629462929E+02  0.11307628009E+03  0.00000000000E+00 0.  1.
       12    1    4    4    0    0  0.65300668253E+01 -0.86276830867E+01 -0.13135718536E+02  0.17018395625E+02  0.00000000000E+00 0. -1.
       -5    1    5    5    0  501  0.38081624592E+02  0.48322556317E+02  0.37136804877E+03  0.37645929027E+03  0.47000000000E+01 0.  1.
        3    1    6    6  503    0  0.11566284658E+03 -0.19659141023E+02  0.31838093255E+03  0.33930928976E+03  0.00000000000E+00 0. -1.
       -4    1    6    6    0  503  0.30850603781E+02  0.56594881953E+01  0.17473001447E+02  0.35903973873E+02  0.00000000000E+00 0.  1.
</event>
<event>
12   0  0.1523332E-01  0.2675385E+03  0.7957747E-01  0.1110415E+00
       21   -1    0    0  501  503  0.00000000000E+00  0.00000000000E+00  0.42393382668E+03  0.42393382668E+03  0.00000000000E+00 0.  1.
       21   -1    0    0  503  504  0.00000000000E+00  0.00000000000E+00 -0.26284016928E+03  0.26284016928E+03  0.00000000000E+00 0. -1.
        6    2    1    2  501    0  0.16713584460E+03 -0.10368793010E+03  0.28917475480E+03  0.39015705029E+03  0.17295926595E+03 0.  0.
       24    2    3    3    0    0  0.10176052218E+03 -0.31502921272E+02  0.71483331961E+02  0.15162769390E+03  0.80829777232E+02 0.  0.
       -6    2    1    2    0  504 -0.16713584460E+03  0.10368793010E+03 -0.12808109739E+03  0.29661694567E+03  0.18135949809E+03 0.  0.
      -24    2    5    5    0    0 -0.78683021455E+02  0.11977890920E+03 -0.12512988621E+03  0.20654130424E+03  0.80397866769E+02 0.  0.
        5    1    3    3  501    0  0.65375322421E+02 -0.72185008830E+02  0.21769142284E+03  0.23852935639E+03  0.47000000000E+01 0. -1.
        2    1    4    4  502    0  0.58692772851E+02  0.22286755101E+02  0.20977926019E+02  0.66193764192E+02  0.00000000000E+00 0. -1.
       -1    1    4    4    0  502  0.43067749325E+02 -0.53789676373E+02  0.50505405942E+02  0.85433929710E+02  0.00000000000E+00 0.  1.
       -5    1    5    5    0  504 -0.88452823143E+02 -0.16090979099E+02 -0.29512111837E+01  0.90075641423E+02  0.47000000000E+01 0.  1.
       13    1    6    6    0    0 -0.56423096653E+02  0.20107943085E+02 -0.63340239359E+02  0.87177297120E+02  0.00000000000E+00 0. -1.
      -14    1    6    6    0    0 -0.22259924801E+02  0.99670966116E+02 -0.61789646852E+02  0.11936400712E+03  0.00000000000E+00 0.  1.
</event>
<event>
12   0  0.1523332E-01  0.1777557E+03  0.7957747E-01  0.1175535E+00
       -2   -1    0    0    0  501  0.00000000000E+00  0.00000000000E+00  0.36110492415E+02  0.36110492415E+02  0.00000000000E+00 0.  1.
        2   -1    0    0  502    0  0.00000000000E+00  0.00000000000E+00 -0.88613462095E+03  0.88613462095E+03  0.00000000000E+00 0. -1.
        6    2    1    2  502    0 -0.91556927196E+01 -0.19265717176E+02 -0.47905821376E+03  0.51133677167E+03  0.17752049832E+03 0.  0.
       24    2    3    3    0    0  0.51517340722E+02 -0.30267586080E+02 -0.17936764187E+03  0.20533221781E+03  0.80114952142E+02 0.  0.
       -6    2    1    2    0  501  0.91556927196E+01  0.19265717176E+02 -0.37096591478E+03  0.41090834170E+03  0.17542793615E+03 0.  0.
      -24    2    5    5    0    0  0.37885464601E+02  0.73312341033E+02 -0.22467975614E+03  0.25226355750E+03  0.79661169021E+02 0.  0.
        5    1    3    3  502    0 -0.60673033442E+02  0.11001868903E+02 -0.29969057189E+03  0.30600455386E+03  0.47000000000E+01 0. -1.
        4    1    4    4  503    0  0.53443469833E+02  0.12998510516E+02 -0.11835758555E+03  0.13051315566E+03  0.00000000000E+00 0. -1.
       -3    1    4    4    0  503 -0.19261291108E+01 -0.43266096596E+02 -0.61010056324E+02  0.74819062148E+02  0.00000000000E+00 0.  1.
       -5    1    5    5    0  501 -0.28729771881E+02 -0.54046623857E+02 -0.14628615864E+03  0.15864478420E+03  0.47000000000E+01 0.  1.
       11    1    6    6    0    0  0.46887207109E+02  0.18173813272E+02 -0.15499374907E+03  0.16294710777E+03  0.00000000000E+00 0. -1.
      -12    1    6    6    0    0 -0.90017425077E+01  0.55138527761E+02 -0.69686007062E+02  0.89316449728E+02  0.00000000000E+00 0.  1.
</event>
<event>
12   0  0.1523332E-01  0.1910972E+03  0.7957747E-01  0.1163457E+00
       21   -1    0    0  504  503  0.00000000000E+00  0.00000000000E+00  0.14377053047E+04  0.14377053047E+04  0.00000000000E+00 0.  1.
       21   -1    0    0  501  504  0.00000000000E+00  0.00000000000E+00 -0.33247909751E+02  0.33247909751E+02  0.00000000000E+00 0. -1.
        6    2    1    2  501    0 -0.76508960930E+02  0.21640961250E+02  0.32210900568E+03  0.37186442174E+03  0.16794935043E+03 0.  0.
       24    2    3    3    0    0 -0.99371338295E+02  0.16436045027E+01  0.31318600559E+03  0.33985985166E+03  0.86844000144E+02 0.  0.
       -6    2    1    2    0  503  0.76508960930E+02 -0.21640961250E+02  0.10823483892E+04  0.10990887927E+04  0.17377049864E+03 0.  0.
      -24    2    5    5    0    0  0.52435531804E+02  0.54922554989E+01  0.27436266235E+03  0.29027560887E+03  0.78774416846E+02 0.  0.
        5    1    3    3  501    0  0.22862377365E+02  0.19997356747E+02  0.89230000887E+01  0.32004570084E+02  0.47000000000E+01 0. -1.
      -13    1    4    4    0    0 -0.81260992004E+02  0.39100365591E+02  0.22279197226E+03  0.24035068195E+03  0.00000000000E+00 0.  1.
       14    1    4    4    0    0 -0.18110346291E+02 -0.37456761088E+02  0.90394033334E+02  0.99509169710E+02  0.00000000000E+00 0. -1.
       -5    1    5    5    0  503  0.24073429126E+02 -0.27133216749E+02  0.80798572688E+03  0.80881318379E+03  0.47000000000E+01 0.  1.
        1    1    6    6  502    0  0.59894722427E+02  0.31105347878E+02  0.18087383308E+03  0.19305508005E+03  0.00000000000E+00 0. -1.
       -2    1    6    6    0  502 -0.74591906228E+01 -0.25613092379E+02  0.93488829268E+02  0.97220528819E+02  0.00000000000E+00 0.  1.
</event>
<event>
12   0  0.1523332E-01  0.2028815E+03  0.7957747E-01  0.1153657E+00
       -2   -1    0    0    0  501  0.00000000000E+00  0.00000000000E+00  0.58680120978E+03  0.58680120978E+03  0.00000000000E+00 0.  1.
        2   -1    0    0  502    0  0.00000000000E+00  0.00000000000E+00 -0.94953349466E+02  0.94953349466E+02  0.00000000000E+00 0. -1.
        6    2    1    2  502    0  0.72735212796E+02  0.77203053126E+02  0.71736963804E+02  0.21524579772E+03  0.17301398460E+03 0.  0.
       24    2    3    3    0    0  0.14501917637E+02 -0.21478970631E+02  0.92000442268E+01  0.84623384683E+02  0.80030148237E+02 0.  0.
       -6    2    1    2    0  501 -0.72735212796E+02 -0.77203053126E+02  0.42011089651E+03  0.46650876152E+03  0.17287722990E+03 0.  0.
      -24    2    5    5    0    0  0.20703612672E+02 -0.19137618204E+02  0.14046978435E+03  0.16596982819E+03  0.83781474962E+02 0.  0.
        5    1    3    3  502    0  0.58233295158E+02  0.98682023757E+02  0.62536919577E+02  0.13062241304E+03  0.47000000000E+01 0. -1.
      -11    1    4    4    0    0  0.46023761479E+02 -0.25001293214E+02  0.67819577212E+01  0.52813314927E+02  0.00000000000E+00 0.  1.
       12    1    4    4    0    0 -0.31521843841E+02  0.35223225830E+01  0.24180865056E+01  0.31810069756E+02  0.00000000000E+00 0. -1.
       -5    1    5    5    0  501 -0.93438825467E+02 -0.58065434923E+02  0.27964111216E+03  0.30053893333E+03  0.47000000000E+01 0.  1.
        3    1    6    6  503    0 -0.10665230040E+01 -0.31405197471E+02  0.13721854071E+03  0.14077056444E+03  0.00000000000E+00 0. -1.
       -4    1    6    6    0  503  0.21770135676E+02  0.12267579267E+02  0.32512436446E+01  0.25199263752E+02  0.00000000000E+00 0.  1.
</event>
<event>
12   0  0.1523332E-01  0.2172193E+03  0.7957747E-01  0.1142673E+00
       21   -1    0    0  504  503  0.00000000000E+00  0.00000000000E+00  0.30527707828E+03  0.30527707828E+03  0.00000000000E+00 0. -1.
       21   -1    0    0  501  504  0.00000000000E+00  0.00000000000E+00 -0.24167539501E+03  0.24167539501E+03  0.00000000000E+00 0. -1.
        6    2    1    2  501    0 -0.14539101134E+02 -0.11387860577E+03 -0.14031701379E+03  0.25859831516E+03  0.18440309632E+03 0.  0.
       24    2    3    3    0    0 -0.52928483559E+02 -0.11686512467E+03 -0.48510890898E+02  0.15893328530E+03  0.80296954506E+02 0.  0.
       -6    2    1    2    0  503  0.14539101134E+02  0.11387860577E+03  0.20391869706E+03  0.28835415812E+03  0.16848015665E+03 0.  0.
      -24    2    5    5    0    0 -0.23981311090E+02  0.12101304579E+03  0.20054891158E+03  0.24875405905E+03  0.80246217505E+02 0.  0.
        5    1    3    3  501    0  0.38389382425E+02  0.29865189036E+01 -0.91806122888E+02  0.99665029864E+02  0.47000000000E+01 0. -1.
        4    1    4    4  502    0 -0.37197215119E+02 -0.32845040180E+02 -0.53924159890E+02  0.73281952054E+02  0.00000000000E+00 0. -1.
       -3    1    4    4    0  502 -0.15731268439E+02 -0.84020084494E+02  0.54132689926E+01  0.85651333242E+02  0.00000000000E+00 0.  1.
       -5    1    5    5    0  503  0.38520412224E+02 -0.71344400234E+01  0.33697854737E+01  0.39600099072E+02  0.47000000000E+01 0.  1.
       11    1    6    6    0    0  0.72966841991E+01  0.89219133648E+02  0.79400288845E+02  0.11965659730E+03  0.00000000000E+00 0. -1.
      -12    1    6    6    0    0 -0.31277995289E+02  0.31793912145E+02  0.12114862274E+03  0.12909746175E+03  0.00000000000E+00 0.  1.
</event>
<event>
12   0  0.1523332E-01  0.1851951E+03  0.7957747E-01  0.1168662E+00
       21   -1    0    0  504  503  0.00000000000E+00  0.00000000000E+00  0.41328850413E+03  0.41328850413E+03  0.00000000000E+00 0.  1.
       21   -1    0    0  501  504  0.00000000000E+00  0.00000000000E+00 -0.87258499610E+02  0.87258499610E+02  0.00000000000E+00 0.  1.
        6    2    1    2  501    0 -0.61117925273E+02  0.20176681392E+02  0.87860189138E+02  0.20497956535E+03  0.17365111607E+03 0.  0.
       24    2    3    3    0    0 -0.68606660576E+02 -0.40842913860E+02  0.22137251341E+02  0.11486260405E+03  0.79550879462E+02 0.  0.
       -6    2    1    2    0  503  0.61117925273E+02 -0.20176681392E+02  0.23816981538E+03  0.29556743839E+03  0.16276593752E+03 0.  0.
      -24    2    5    5    0    0  0.62400741561E+02 -0.44567964850E+02  0.83664452058E+02  0.13907278155E+03  0.80382473154E+02 0.  0.
        5    1    3    3  501    0  0.74887353036E+01  0.61019595252E+02  0.65722937797E+02  0.90116961300E+02  0.47000000000E+01 0. -1.
        2    1    4    4  502    0 -0.46980430707E+02  0.14801718027E+02  0.24710601682E+02  0.55107763169E+02  0.00000000000E+00 0. -1.
       -1    1    4    4    0  502 -0.21626229870E+02 -0.55644631887E+02 -0.25733503412E+01  0.59754840877E+02  0.00000000000E+00 0.  1.
       -5    1    5    5    0  503 -0.12828162882E+01  0.24391283458E+02  0.15450536332E+03  0.15649465684E+03  0.47000000000E+01 0.  1.
       13    1    6    6    0    0  0.24808318686E+02 -0.16244655608E+01 -0.12054844075E+02  0.27629890157E+02  0.00000000000E+00 0. -1.
      -14    1    6    6    0    0  0.37592422875E+02 -0.42943499290E+02  0.95719296133E+02  0.11144289139E+03  0.00000000000E+00 0.  1.
</event>
<event>
12   0  0.1523332E-01  0.1948355E+03  0.7957747E-01  0.1160266E+00
       -2   -1    0    0    0  501  0.00000000000E+00  0.00000000000E+00  0.10869761240E+03  0.10869761240E+03  0.00000000000E+00 0. -1.
        2   -1    0    0  502    0  0.00000000000E+00  0.00000000000E+00 -0.38585427180E+03  0.38585427180E+03  0.00000000000E+00 0.  1.
        6    2    1    2  502    0 -0.81880588525E+02  0.39886283204E+02 -0.62704850385E+02  0.20512556446E+03  0.17276936236E+03 0.  0.
       24    2    3    3    0    0  0.98060471053E+00  0.11780659843E+02  0.23072689601E+02  0.82505094008E+02  0.78326215279E+02 0.  0.
       -6    2    1    2    0  501  0.81880588525E+02 -0.39886283204E+02 -0.21445180901E+03  0.28942631974E+03  0.17170518281E+03 0.  0.
      -24    2    5    5    0    0  0.15170691059E+02 -0.81413261125E+02 -0.13190205765E+03  0.17535944565E+03  0.80588543926E+02 0.  0.
        5    1    3    3  502    0 -0.82861193236E+02  0.28105623361E+02 -0.85777539986E+02  0.12262047046E+03  0.47000000000E+01 0. -1.
      -11    1    4    4    0    0 -0.15796378356E+02 -0.14493759817E+02 -0.20010762436E+02  0.29326187206E+02  0.00000000000E+00 0.  1.
       12    1    4    4    0    0  0.16776983066E+02  0.26274419660E+02  0.43083452037E+02  0.53178906802E+02  0.00000000000E+00 0. -1.
       -5    1    5    5    0  501  0.66709897466E+02  0.41526977921E+02 -0.82549751368E+02  0.11406687410E+03  0.47000000000E+01 0.  1.
        3    1    6    6  503    0 -0.25659254102E+02 -0.45038171198E+02 -0.30472037648E+02  0.60128023952E+02  0.00000000000E+00 0. -1.
       -4    1    6    6    0  503  0.40829945161E+02 -0.36375089927E+02 -0.10143002000E+03  0.11523142169E+03  0.00000000000E+00 0.  1.
</event>
<event>
12   0  0.1523332E-01  0.2150618E+03  0.7957747E-01  0.1144265E+00
        2   -1    0    0  502    0  0.00000000000E+00  0.00000000000E+00  0.63729453654E+03  0.63729453654E+03  0.00000000000E+00 0. -1.
       -2   -1    0    0    0  501  0.00000000000E+00  0.00000000000E+00 -0.10628393756E+03  0.10628393756E+03  0.00000000000E+00 0.  1.
        6    2    1    2  502    0  0.12574673829E+03 -0.24775196901E+02  0.55744963802E+02  0.22173190097E+03  0.17213797474E+03 0.  0.
       24    2    3    3    0    0  0.30802495020E+01 -0.42337935774E+02  0.21574637228E+02  0.93103682893E+02  0.80005262665E+02 0.  0.
       -6    2    1    2    0  501 -0.12574673829E+03  0.24775196901E+02  0.47526563518E+03  0.52184657313E+03  0.17326387199E+03 0.  0.
      -24    2    5    5    0    0 -0.11069913042E+03 -0.45371213998E+01  0.18760148956E+03  0.23226343622E+03  0.80480444686E+02 0.  0.
        5    1    3    3  502    0  0.12266648879E+03  0.17562738873E+02  0.34170326574E+02  0.12862821808E+03  0.47000000000E+01 0. -1.
      -11    1    4    4    0    0  0.82835654696E+01 -0.10977136676E+02 -0.29725490042E+02  0.32752400595E+02  0.00000000000E+00 0.  1.
       12    1    4    4    0    0 -0.52033159676E+01 -0.31360799098E+02  0.51300127270E+02  0.60351282298E+02  0.00000000000E+00 0. -1.
       -5    1    5    5    0  501 -0.15047607872E+02  0.29312318301E+02  0.28766414562E+03  0.28958313691E+03  0.47000000000E+01 0.  1.
        1    1    6    6  503    0 -0.67048485495E+02 -0.35599826293E+02  0.14554549932E+03  0.16415340207E+03  0.00000000000E+00 0. -1.
       -2    1    6    6    0  503 -0.43650644922E+02  0.31062704893E+02  0.42055990234E+02  0.68110034150E+02  0.00000000000E+00 0.  1.
</event>
<event>
12   0  0.1523332E-01  0.1848683E+03  0.7957747E-01  0.1168956E+00
       21   -1    0    0  501  503  0.00000000000E+00  0.00000000000E+00  0.23732814610E+03  0.23732814610E+03  0.00000000000E+00 0.  1.
       21   -1    0    0  503  504  0.00000000000E+00  0.00000000000E+00 -0.18001325174E+03  0.18001325174E+03  0.00000000000E+00 0.  1.
        6    2    1    2  501    0  0.45291393775E+02 -0.41495857043E+02  0.13715479260E+03  0.21596934904E+03  0.15510675707E+03 0.  0.
       24    2    3    3    0    0  0.54517968543E+02  0.26764408667E+01  0.32010260401E+02  0.10145391673E+03  0.79302384699E+02 0.  0.
       -6    2    1    2    0  504 -0.45291393775E+02  0.41495857043E+02 -0.79839898246E+02  0.20137204880E+03  0.17436477908E+03 0.  0.
      -24    2    5    5    0    0 -0.12548661553E+02 -0.42143923852E+02 -0.23657257103E+02  0.95323575792E+02  0.81199378469E+02 0.  0.
        5    1    3    3  501    0 -0.92265747680E+01 -0.44172297909E+02  0.10514453220E+03  0.11451543231E+03  0.47000000000E+01 0. -1.
        2    1    4    4  502    0  0.25598292643E+02  0.25317465422E+02 -0.17319636730E+02  0.39952677734E+02  0.00000000000E+00 0. -1.
       -1    1    4    4    0  502  0.28919675900E+02 -0.22641024556E+02  0.49329897130E+02  0.61501238996E+02  0.00000000000E+00 0.  1.
       -5    1    5    5    0  504 -0.32742732223E+02  0.83639780895E+02 -0.56182641143E+02  0.10604847301E+03  0.47000000000E+01 0.  1.
       11    1    6    6    0    0  0.24829020664E+02 -0.36718376595E+02 -0.34341690725E+02  0.56072017699E+02  0.00000000000E+00 0. -1.
      -12    1    6    6    0    0 -0.37377682217E+02 -0.54255472570E+01  0.10684433622E+02  0.39251558094E+02  0.00000000000E+00 0.  1.
</event>
<event>
12   0  0.1523332E-01  0.2075093E+03  0.7957747E-01  0.1150005E+00
       21   -1    0    0  501  503  0.00000000000E+00  0.00000000000E+00  0.20078237531E+03  0.20078237531E+03  0.00000000000E+00 0. -1.
       21   -1    0    0  503  504  0.00000000000E+00  0.00000000000E+00 -0.33218793069E+03  0.33218793069E+03  0.00000000000E+00 0.  1.
        6    2    1    2  501    0  0.83275187824E+01  0.10542354327E+03  0.96046552580E+02  0.22865928005E+03  0.17854034572E+03 0.  0.
       24    2    3    3    0    0  0.19333232232E+02 -0.15046017158E+02  0.20620754131E+02  0.86022742696E+02  0.79840718052E+02 0.  0.
       -6    2    1    2    0  504 -0.83275187824E+01 -0.10542354327E+03 -0.22745210796E+03  0.30431102595E+03  0.17229993632E+03 0.  0.
      -24    2    5    5    0    0  0.15820745407E+02 -0.75768906428E+02 -0.48616118474E+02  0.12137131653E+03  0.79851401575E+02 0.  0.
        5    1    3    3  501    0 -0.11005713450E+02  0.12046956043E+03  0.75425798449E+02  0.14263653736E+03  0.47000000000E+01 0. -1.
        2    1    4    4  502    0 -0.21455867250E+02 -0.24975369837E+02  0.28214665278E+02  0.43361165514E+02  0.00000000000E+00 0. -1.
       -1    1    4    4    0  502  0.40789099482E+02  0.99293526788E+01 -0.75939111476E+01  0.42661577182E+02  0.00000000000E+00 0.  1.
       -5    1    5    5    0  504 -0.24148264190E+02 -0.29654636840E+02 -0.17883598948E+03  0.18293970942E+03  0.47000000000E+01 0.  1.
       11    1    6    6    0    0 -0.27506815387E+02 -0.49946917852E+02 -0.41297384853E+02  0.70404499085E+02  0.00000000000E+00 0. -1.
      -12    1    6    6    0    0  0.43327560794E+02 -0.25821988575E+02 -0.73187336211E+01  0.50966817442E+02  0.00000000000E+00 0.  1.
</event>
<event>
12   0  0.1523332E-01  0.2184307E+03  0.7957747E-01  0.1141787E+00
       21   -1    0    0  504  503  0.00000000000E+00  0.00000000000E+00  0.18416230072E+03  0.18416230072E+03  0.00000000000E+00 0.  1.
       21   -1    0    0  501  504  0.00000000000E+00  0.00000000000E+00 -0.30116220097E+03  0.30116220097E+03  0.00000000000E+00 0.  1.
        6    2    1    2  501    0 -0.90917269104E+02  0.94970050988E+02 -0.15138002185E+03  0.26420467002E+03  0.17205503839E+03 0.  0.
       24    2    3    3    0    0 -0.68488705564E+02  0.13413222410E+03 -0.11529405836E+03  0.20623051175E+03  0.80970042323E+02 0.  0.
       -6    2    1    2    0  503  0.90917269104E+02 -0.94970050988E+02  0.34380121609E+02  0.22111983167E+03  0.17443258523E+03 0.  0.
      -24    2    5    5    0    0  0.25804078879E+02  0.22099609508E+01 -0.26375950718E+02  0.89221868890E+02  0.81204166751E+02 0.  0.
        5    1    3    3  501    0 -0.22428563540E+02 -0.39162173110E+02 -0.36085963489E+02  0.57974158261E+02  0.47000000000E+01 0. -1.
        2    1    4    4  502    0 -0.66805741732E+02  0.96417823259E+02 -0.43482812067E+02  0.12510059439E+03  0.00000000000E+00 0. -1.
       -1    1    4    4    0  502 -0.16829638319E+01  0.37714400839E+02 -0.71811246295E+02  0.81129917369E+02  0.00000000000E+00 0.  1.
       -5    1    5    5    0  503  0.65113190225E+02 -0.97180011938E+02  0.60756072327E+02  0.13189796278E+03  0.47000000000E+01 0.  1.
       11    1    6    6    0    0  0.36689685336E+02 -0.47215548782E+01 -0.50063078437E+02  0.62247392822E+02  0.00000000000E+00 0. -1.
      -12    1    6    6    0    0 -0.10885606457E+02  0.69315158290E+01  0.23687127718E+02  0.26974476069E+02  0.00000000000E+00 0.  1.
</event>
<event>
12   0  0.1523332E-01  0.1822470E+03  0.7957747E-01  0.1171342E+00
       21   -1    0    0  504  503  0.00000000000E+00  0.00000000000E+00  0.27357425080E+03  0.27357425080E+03  0.00000000000E+00 0.  1.
       21   -1    0    0  501  504  0.00000000000E+00  0.00000000000E+00 -0.20741730513E+03  0.20741730513E+03  0.00000000000E+00 0.  1.
        6    2    1    2  501    0 -0.70798261624E+01  0.56047601512E+02 -0.12226305680E+03  0.21885405635E+03  0.17250329083E+03 0.  0.
       24    2    3    3    0    0  0.25070935209E+02 -0.24680960855E+02 -0.30614604065E+02  0.92472486771E+02  0.79851144053E+02 0.  0.
       -6    2    1    2    0  503  0.70798261624E+01 -0.56047601512E+02  0.18842000247E+03  0.26213749959E+03  0.17327006027E+03 0.  0.
      -24    2    5    5    0    0  0.50515201622E+02 -0.95715595435E+00  0.16023442196E+03  0.18638721258E+03  0.80699574284E+02 0.  0.
        5    1    3    3  501    0 -0.32150761372E+02  0.80728562367E+02 -0.91648452739E+02  0.12638156957E+03  0.47000000000E+01 0. -1.
      -11    1    4    4    0    0  0.81531184839E+00 -0.37107695780E+02 -0.47598919557E+02  0.60359779345E+02  0.00000000000E+00 0.  1.
       12    1    4    4    0    0  0.24255623361E+02  0.12426734925E+02  0.16984315492E+02  0.32112707427E+02  0.00000000000E+00 0. -1.
       -5    1    5    5    0  503 -0.43435375460E+02 -0.55090445557E+02  0.28185580510E+02  0.75750287008E+02  0.47000000000E+01 0.  1.
        1    1    6    6  502    0  0.22317975180E+02  0.39602308765E+02  0.68781315863E+02  0.82445765734E+02  0.00000000000E+00 0. -1.
       -2    1    6    6    0  502  0.28197226443E+02 -0.40559464720E+02  0.91453106099E+02  0.10394144685E+03  0.00000000000E+00 0.  1.
</event>
<event>
12   0  0.1523332E-01  0.1780077E+03  0.7957747E-01  0.1175296E+00
       -2   -1    0    0    0  501  0.00000000000E+00  0.00000000000E+00  0.19029519046E+02  0.19029519046E+02  0.00000000000E+00 0. -1.
        2   -1    0    0  502    0  0.00000000000E+00  0.00000000000E+00 -0.24629860507E+04  0.24629860507E+04  0.00000000000E+00 0.  1.
        6    2    1    2  502    0 -0.41357402581E+02 -0.33140905394E+01 -0.50963975658E+03  0.53940470945E+03  0.17176536656E+03 0.  0.
       24    2    3    3    0    0 -0.85187828776E+02 -0.35760368145E+02 -0.29628474049E+03  0.31914050428E+03  0.74365609806E+02 0.  0.
       -6    2    1    2    0  501  0.41357402581E+02  0.33140905394E+01 -0.19343167751E+04  0.19426108603E+04  0.17445386282E+03 0.  0.
      -24    2    5    5    0    0  0.90350024100E+02 -0.20987429865E+02 -0.14718230670E+04  0.14768712755E+04  0.79259224744E+02 0.  0.
        5    1    3    3  502    0  0.43830426195E+02  0.32446277606E+02 -0.21335501608E+03  0.22026420517E+03  0.47000000000E+01 0. -1.
      -11    1    4    4    0    0 -0.44711519849E+02 -0.51141440808E+02 -0.23116063407E+03  0.24093527288E+03  0.00000000000E+00 0.  1.
       12    1    4    4    0    0 -0.40476308927E+02  0.15381072662E+02 -0.65124106422E+02  0.78205231397E+02  0.00000000000E+00 0. -1.
       -5    1    5    5    0  501 -0.48992621520E+02  0.24301520405E+02 -0.46249370807E+03  0.46573958481E+03  0.47000000000E+01 0.  1.
        1    1    6    6  503    0  0.14745003950E+02 -0.35416942172E+02 -0.74428142416E+03  0.74526949037E+03  0.00000000000E+00 0. -1.
       -2    1    6    6    0  503  0.75605020150E+02  0.14429512307E+02 -0.72754164287E+03  0.73160178513E+03  0.00000000000E+00 0.  1.
</event>
<event>
12   0  0.1523332E-01  0.1821291E+03  0.7957747E-01  0.1171451E+00
       -1   -1    0    0    0  501  0.00000000000E+00  0.00000000000E+00  0.56829083896E+02  0.56829083896E+02  0.00000000000E+00 0. -1.
        1   -1    0    0  502    0  0.00000000000E+00  0.00000000000E+00 -0.78131555147E+03  0.78131555147E+03  0.00000000000E+00 0.  1.
        6    2    1    2  502    0  0.58979028064E+02  0.16074815112E+02 -0.15018260278E+03  0.23538553018E+03  0.17063003314E+03 0.  0.
       24    2    3    3    0    0  0.22899657661E+01 -0.21125016635E+01 -0.15477575835E+03  0.17548882448E+03  0.82650381348E+02 0.  0.
       -6    2    1    2    0  501 -0.58979028064E+02 -0.16074815112E+02 -0.57430386480E+03  0.60275910519E+03  0.17250125893E+03 0.  0.
      -24    2    5    5    0    0 -0.82309644319E+02 -0.35365610407E+02 -0.25381292585E+03  0.28080726968E+03  0.80038224808E+02 0.  0.
        5    1    3    3  502    0  0.56689062298E+02  0.18187316775E+02  0.45931555744E+01  0.59896705701E+02  0.47000000000E+01 0. -1.
        2    1    4    4  503    0  0.64490745801E+01 -0.41338600657E+02 -0.95795922784E+02  0.10453386671E+03  0.00000000000E+00 0. -1.
       -1    1    4    4    0  503 -0.41591088140E+01  0.39226098993E+02 -0.58979835566E+02  0.70954957767E+02  0.00000000000E+00 0.  1.
       -5    1    5    5    0  501  0.23330616254E+02  0.19290795295E+02 -0.32049093895E+03  0.32195183551E+03  0.47000000000E+01 0.  1.
       11    1    6    6    0    0  0.38352161538E+01  0.15464749149E+02 -0.14955419471E+02  0.21852503763E+02  0.00000000000E+00 0. -1.
      -12    1    6    6    0    0 -0.86144860473E+02 -0.50830359556E+02 -0.23885750638E+03  0.25895476592E+03  0.00000000000E+00 0.  1.
</event>
<event>
12   0  0.1523332E-01  0.1741368E+03  0.7957747E-01  0.1179013E+00
       -4   -1    0    0    0  501  0.00000000000E+00  0.00000000000E+00  0.16528527210E+03  0.16528527210E+03  0.00000000000E+00 0.  1.
        4   -1    0    0  502    0  0.00000000000E+00  0.00000000000E+00 -0.18883890251E+03  0.18883890251E+03  0.00000000000E+00 0. -1.
        6    2    1    2  502    0  0.48860228045E+01  0.32629366202E+01 -0.41546163439E+02  0.17782715674E+03  0.17280594319E+03 0.  0.
       24    2    3    3    0    0  0.65573874991E+01  0.64361118913E+02  0.48307784383E+01  0.10095913948E+03  0.77356696322E+02 0.  0.
       -6    2    1    2    0  501 -0.48860228045E+01 -0.32629366202E+01  0.17992533025E+02  0.17629701787E+03  0.17527802855E+03 0.  0.
      -24    2    5    5    0    0 -0.20467942728E+02  0.36942111516E+02 -0.46027386285E+02  0.98967319876E+02  0.76761669031E+02 0.  0.
        5    1    3    3  502    0 -0.16713646945E+01 -0.61098182293E+02 -0.46376941877E+02  0.76868017259E+02  0.47000000000E+01 0. -1.
      -11    1    4    4    0    0  0.26791878636E+02  0.31401539947E+02 -0.28288522945E+02  0.50041003210E+02  0.00000000000E+00 0.  1.
       12    1    4    4    0    0 -0.20234491137E+02  0.32959578965E+02  0.33119301383E+02  0.50918136270E+02  0.00000000000E+00 0. -1.
       -5    1    5    5    0  501  0.15581919924E+02 -0.40205048136E+02  0.64019919310E+02  0.77329697999E+02  0.47000000000E+01 0.  1.
        1    1    6    6  503    0 -0.34116091622E+02  0.17918816353E+02  0.86444164534E+01  0.39493260474E+02  0.00000000000E+00 0. -1.
       -2    1    6    6    0  503  0.13648148894E+02  0.19023295163E+02 -0.54671802738E+02  0.59474059402E+02  0.00000000000E+00 0.  1.
</event>
<event>
12   0  0.1523332E-01  0.2448807E+03  0.7957747E-01  0.1123890E+00
       21   -1    0    0  504  503  0.00000000000E+00  0.00000000000E+00  0.16008463115E+03  0.16008463115E+03  0.00000000000E+00 0.  1.
       21   -1    0    0  501  504  0.00000000000E+00  0.00000000000E+00 -0.57781344471E+03  0.57781344471E+03  0.00000000000E+00 0.  1.
        6    2    1    2  501    0 -0.22739848468E+02  0.17129003618E+03 -0.42778810740E+03  0.49281083018E+03  0.17321221755E+03 0.  0.
       24    2    3    3    0    0  0.10322209788E+02  0.12907432201E+03 -0.40765792300E+03  0.43534274736E+03  0.81065386433E+02 0.  0.
       -6    2    1    2    0  503  0.22739848468E+02 -0.17129003618E+03  0.10059293838E+02  0.24508724568E+03  0.17352000288E+03 0.  0.
      -24    2    5    5    0    0  0.40594062468E+02 -0.16101477065E+03 -0.41673814792E+02  0.18920559782E+03  0.80550711545E+02 0.  0.
        5    1    3    3  501    0 -0.33062058257E+02  0.42215714173E+02 -0.20130184397E+02  0.57468082821E+02  0.47000000000E+01 0. -1.
      -11    1    4    4    0    0 -0.12644697814E+02  0.11232468409E+03 -0.23992585101E+03  0.26521903593E+03  0.00000000000E+00 0.  1.
       12    1    4    4    0    0  0.22966907602E+02  0.16749637918E+02 -0.16773207199E+03  0.17012371143E+03  0.00000000000E+00 0. -1.
       -5    1    5    5    0  503 -0.17854213999E+02 -0.10275265530E+02  0.51733108630E+02  0.55881647862E+02  0.47000000000E+01 0.  1.
        1    1    6    6  502    0  0.42405345369E+02 -0.86187345691E+02 -0.58529410668E+02  0.11248183758E+03  0.00000000000E+00 0. -1.
       -2    1    6    6    0  502 -0.18112829020E+01 -0.74827424963E+02  0.16855595875E+02  0.76723760236E+02  0.00000000000E+00 0.  1.
</event>
<event>
12   0  0.1523332E-01  0.2166321E+03  0.7957747E-01  0.1143104E+00
       21   -1    0    0  501  503  0.00000000000E+00  0.00000000000E+00  0.15763769297E+03  0.15763769297E+03  0.00000000000E+00 0. -1.
       21   -1    0    0  503  504  0.00000000000E+00  0.00000000000E+00 -0.34286066857E+03  0.34286066857E+03  0.00000000000E+00 0.  1.
        6    2    1    2  501    0 -0.11817317875E+03  0.54219107810E+02 -0.18465968950E+03  0.28465534736E+03  0.17327681330E+03 0.  0.
       24    2    3    3    0    0 -0.10289014828E+03  0.10026222792E+03 -0.15429062941E+03  0.22722791715E+03  0.84782256701E+02 0.  0.
       -6    2    1    2    0  504  0.11817317875E+03 -0.54219107810E+02 -0.56328609840E+00  0.21584301418E+03  0.17228835611E+03 0.  0.
      -24    2    5    5    0    0  0.13879744889E+03 -0.62692825726E+02 -0.34004067372E+02  0.17537648151E+03  0.80034439172E+02 0.  0.
        5    1    3    3  501    0 -0.15283030474E+02 -0.46043120105E+02 -0.30369060090E+02  0.57427430208E+02  0.47000000000E+01 0. -1.
        4    1    4    4  502    0 -0.29119702792E+02  0.54337144734E+02 -0.15647282568E+02  0.63602828870E+02  0.00000000000E+00 0. -1.
       -3    1    4    4    0  502 -0.73770445484E+02  0.45925083182E+02 -0.13864334684E+03  0.16362508828E+03  0.00000000000E+00 0.  1.
       -5    1    5    5    0  504 -0.20624270138E+02  0.84737179160E+01  0.33440781273E+02  0.40466532668E+02  0.47000000000E+01 0.  1.
       13    1    6    6    0    0  0.38954875535E+02 -0.34686731480E+02  0.23044331413E+02  0.57023616852E+02  0.00000000000E+00 0. -1.
      -14    1    6    6    0    0  0.99842573353E+02 -0.28006094247E+02 -0.57048398784E+02  0.11835286466E+03  0.00000000000E+00 0.  1.
</event>
<event>
12   0  0.1523332E-01  0.2001434E+03  0.7957747E-01  0.1155868E+00
       21   -1    0    0  501  503  0.00000000000E+00  0.00000000000E+00  0.70234444053E+03  0.70234444053E+03  0.00000000000E+00 0.  1.
       21   -1    0    0  503  504  0.00000000000E+00  0.00000000000E+00 -0.12066866104E+03  0.12066866104E+03  0.00000000000E+00 0.  1.
        6    2    1    2  501    0  0.57344641399E+02  0.81574531468E+02  0.58993731053E+03  0.62269923388E+03  0.17258474277E+03 0.  0.
       24    2    3    3    0    0  0.77289260443E+02  0.40003327635E+02  0.22250453979E+03  0.25235495644E+03  0.81245663344E+02 0.  0.
       -6    2    1    2    0  504 -0.57344641399E+02 -0.81574531468E+02 -0.82615310511E+01  0.20031386769E+03  0.17353553126E+03 0.  0.
      -24    2    5    5    0    0  0.36327450725E+02 -0.37585998011E+02 -0.16445951785E+02  0.96397908079E+02  0.79307606378E+02 0.  0.
        5    1    3    3  501    0 -0.19944619044E+02  0.41571203833E+02  0.36743277074E+03  0.37034427744E+03  0.47000000000E+01 0. -1.
      -13    1    4    4    0    0 -0.85862773610E+01  0.19723815941E+02  0.13269085921E+02  0.25274922658E+02  0.00000000000E+00 0.  1.
       14    1    4    4    0    0  0.85875537804E+02  0.20279511693E+02  0.20923545387E+03  0.22708003378E+03  0.00000000000E+00 0. -1.
       -5    1    5    5    0  504 -0.93672092124E+02 -0.43988533457E+02  0.81844207336E+01  0.10391595961E+03  0.47000000000E+01 0.  1.
        1    1    6    6  502    0 -0.23222260880E+02 -0.45198740642E+01 -0.15488313967E+02  0.28277031872E+02  0.00000000000E+00 0. -1.
       -2    1    6    6    0  502  0.59549711605E+02 -0.33066123947E+02 -0.95763781748E+00  0.68120876208E+02  0.00000000000E+00 0.  1.
</event>
<event>
12   0  0.1523332E-01  0.2807867E+03  0.7957747E-01  0.1103190E+00
        1   -1    0    0  502    0  0.00000000000E+00  0.00000000000E+00  0.41650844080E+03  0.41650844080E+03  0.00000000000E+00 0.  1.
       -1   -1    0    0    0  501  0.00000000000E+00  0.00000000000E+00 -0.21269310417E+03  0.21269310417E+03  0.00000000000E+00 0. -1.
        6    2    1    2  502    0 -0.16209221904E+02 -0.21972917245E+03 -0.18985684859E+01  0.28244672835E+03  0.17671701019E+03 0.  0.
       24    2    3    3    0    0 -0.79019952525E+02 -0.12888915203E+03 -0.44937666183E+01  0.17187583596E+03  0.81636650094E+02 0.  0.
       -6    2    1    2    0  501  0.16209221904E+02  0.21972917245E+03  0.20571390512E+03  0.34675481663E+03  0.17139732785E+03 0.  0.
      -24    2    5    5    0    0  0.65895048000E+02  0.17271088470E+03  0.17729787367E+03  0.27253243765E+03  0.93103096181E+02 0.  0.
        5    1    3    3  502    0  0.62810730621E+02 -0.90840020419E+02  0.25951981324E+01  0.11057089239E+03  0.47000000000E+01 0. -1.
        4    1    4    4  503    0 -0.28576130152E+02 -0.99345079394E+02 -0.30665615317E+02  0.10782587805E+03  0.00000000000E+00 0. -1.
       -3    1    4    4    0  503 -0.50443822372E+02 -0.29544072640E+02  0.26171848699E+02  0.64049957908E+02  0.00000000000E+00 0.  1.
       -5    1    5    5    0  501 -0.49685826096E+02  0.47018287753E+02  0.28416031451E+02  0.74222378980E+02  0.47000000000E+01 0.  1.
       13    1    6    6    0    0 -0.12385183775E+01  0.11603046046E+03  0.77340240719E+02  0.13944932598E+03  0.00000000000E+00 0. -1.
      -14    1    6    6    0    0  0.67133566378E+02  0.56680424245E+02  0.99957632948E+02  0.13308311167E+03  0.00000000000E+00 0.  1.
</event>
<event>
12   0  0.1523332E-01  0.1790747E+03  0.7957747E-01  0.1174289E+00
       21   -1    0    0  504  503  0.00000000000E+00  0.00000000000E+00  0.54052248316E+03  0.54052248316E+03  0.00000000000E+00 0.  1.
       21   -1    0    0  501  504  0.00000000000E+00  0.00000000000E+00 -0.59047409745E+02  0.59047409745E+02  0.00000000000E+00 0.  1.
        6    2    1    2  501    0 -0.28721266459E+02 -0.28069024997E+02  0.23551096819E+03  0.29532312273E+03  0.17360169748E+03 0.  0.
       24    2    3    3    0    0 -0.14556926092E+02 -0.66976011227E+02  0.75754482876E+02  0.13022131560E+03  0.80753694557E+02 0.  0.
       -6    2    1    2    0  503  0.28721266459E+02  0.28069024997E+02  0.24596410522E+03  0.30424677017E+03  0.17451353756E+03 0.  0.
      -24    2    5    5    0    0 -0.22839528604E+02 -0.27756683702E+02  0.68110006536E+02  0.11078050501E+03  0.79632089901E+02 0.  0.
        5    1    3    3  501    0 -0.14164340368E+02  0.38906986231E+02  0.15975648532E+03  0.16510180713E+03  0.47000000000E+01 0. -1.
        4    1    4    4  502    0  0.33207018009E+01 -0.81865934347E+02  0.52406198049E+02  0.97259795707E+02  0.00000000000E+00 0. -1.
       -3    1    4    4    0  502 -0.17877627893E+02  0.14889923119E+02  0.23348284827E+02  0.32961519897E+02  0.00000000000E+00 0.  1.
       -5    1    5    5    0  503  0.51560795063E+02  0.55825708699E+02  0.17785409868E+03  0.19346626517E+03  0.47000000000E+01 0.  1.
       13    1    6    6    0    0 -0.45694452057E+02 -0.20508875088E+02  0.14641298883E+02  0.52182032723E+02  0.00000000000E+00 0. -1.
      -14    1    6    6    0    0  0.22854923453E+02 -0.72478086141E+01  0.53468707653E+02  0.58598472282E+02  0.00000000000E+00 0.  1.
</event>
<event>
12   0  0.1523332E-01  0.1960545E+03  0.7957747E-01  0.1159242E+00
        3   -1    0    0  502    0  0.00000000000E+00  0.00000000000E+00  0.48503459868E+02  0.48503459868E+02  0.00000000000E+00 0. -1.
       -3   -1    0    0    0  501  0.00000000000E+00  0.00000000000E+00 -0.85779154522E+03  0.85779154522E+03  0.00000000000E+00 0.  1.
        6    2    1    2  502    0 -0.56233862968E+02 -0.69417095204E+02 -0.28024390252E+03  0.34220991990E+03  0.17489998264E+03 0.  0.
       24    2    3    3    0    0  0.29855429598E+02 -0.51503697848E+02 -0.10484606966E+03  0.14594798811E+03  0.82244387900E+02 0.  0.
       -6    2    1    2    0  501  0.56233862968E+02  0.69417095204E+02 -0.52904418283E+03  0.56408508518E+03  0.17413573869E+03 0.  0.
      -24    2    5    5    0    0  0.40806783144E+02  0.10225217327E+03 -0.49712578721E+03  0.51553602626E+03  0.80762897280E+02 0.  0.
        5    1    3    3  502    0 -0.86089292566E+02 -0.17913397356E+02 -0.17539783287E+03  0.19626193180E+03  0.47000000000E+01 0. -1.
        2    1    4    4  503    0  0.32288862823E+02  0.65602407528E+01 -0.95068547894E+01  0.34292677194E+02  0.00000000000E+00 0. -1.
       -1    1    4    4    0  503 -0.24334332253E+01 -0.58063938601E+02 -0.95339214868E+02  0.11165531091E+03  0.00000000000E+00 0.  1.
       -5    1    5    5    0  501  0.15427079824E+02 -0.32835078061E+02 -0.31918395619E+02  0.48549058920E+02  0.47000000000E+01 0.  1.
       11    1    6    6    0    0 -0.12019679893E+02 -0.62776032061E+01 -0.27710378138E+02  0.30850381898E+02  0.00000000000E+00 0. -1.
      -12    1    6    6    0    0  0.52826463037E+02  0.10852977647E+03 -0.46941540907E+03  0.48468564436E+03  0.00000000000E+00 0.  1.
</event>
<event>
12   0  0.1523332E-01  0.2208890E+03  0.7957747E-01  0.1140010E+00
       21   -1    0    0  504  503  0.00000000000E+00  0.00000000000E+00  0.12072211149E+03  0.12072211149E+03  0.00000000000E+00 0. -1.
       21   -1    0    0  501  504  0.00000000000E+00  0.00000000000E+00 -0.61195422748E+03  0.61195422748E+03  0.00000000000E+00 0. -1.
        6    2    1    2  501    0  0.13216692843E+03 -0.35829322867E+02 -0.45910012812E+03  0.50946253037E+03  0.17328388518E+03 0.  0.
       24    2    3    3    0    0  0.68263811145E+02 -0.87507061116E+02 -0.29695748410E+03  0.32762049991E+03  0.82668076953E+02 0.  0.
       -6    2    1    2    0  503 -0.13216692843E+03  0.35829322867E+02 -0.32131987872E+02  0.22321380859E+03  0.17332080762E+03 0.  0.
      -24    2    5    5    0    0 -0.14901772227E+03  0.57357523585E+02 -0.55227023696E+02  0.18711833299E+03  0.80418153007E+02 0.  0.
        5    1    3    3  501    0  0.63903117283E+02  0.51677738249E+02 -0.16214264403E+03  0.18184203046E+03  0.47000000000E+01 0. -1.
      -11    1    4    4    0    0  0.78701619217E+01 -0.12617294064E+02  0.61383790535E+00  0.14883291139E+02  0.00000000000E+00 0.  1.
       12    1    4    4    0    0  0.60393649224E+02 -0.74889767052E+02 -0.29757132200E+03  0.31273720878E+03  0.00000000000E+00 0. -1.
       -5    1    5    5    0  503  0.16850793839E+02 -0.21528200718E+02  0.23095035824E+02  0.36095475601E+02  0.47000000000E+01 0.  1.
        1    1    6    6  502    0 -0.34328808648E+02  0.47652507231E+02 -0.39904258198E+02  0.71004072918E+02  0.00000000000E+00 0. -1.
       -2    1    6    6    0  502 -0.11468891362E+03  0.97050163549E+01 -0.15322765498E+02  0.11611426007E+03  0.00000000000E+00 0.  1.
</event>
<event>
12   0  0.1523332E-01  0.1766867E+03  0.7957747E-01  0.1176553E+00
       21   -1    0    0  501  503  0.00000000000E+00  0.00000000000E+00  0.27155581237E+02  0.27155581237E+02  0.00000000000E+00 0. -1.
       21   -1    0    0  503  504  0.00000000000E+00  0.00000000000E+00 -0.12907923343E+04  0.12907923343E+04  0.00000000000E+00 0. -1.
        6    2    1    2  501    0  0.22539820260E+01  0.33364295986E+02 -0.41202216353E+03  0.44830842812E+03  0.17349330478E+03 0.  0.
       24    2    3    3    0    0 -0.32709600220E+02  0.51342710343E+01 -0.38718098735E+03  0.39674719824E+03  0.80018395789E+02 0.  0.
       -6    2    1    2    0  504 -0.22539820260E+01 -0.33364295986E+02 -0.85161458957E+03  0.86963948746E+03  0.17293690262E+03 0.  0.
      -24    2    5    5    0    0 -0.49861421310E+02 -0.67624536672E+02 -0.50157052952E+03  0.51468432642E+03  0.79168936367E+02 0.  0.
        5    1    3    3  501    0  0.34963582247E+02  0.28230024951E+02 -0.24841176182E+02  0.51561229876E+02  0.47000000000E+01 0. -1.
      -13    1    4    4    0    0 -0.22495133731E+02  0.33512274645E+02 -0.97838303941E+02  0.10583684288E+03  0.00000000000E+00 0.  1.
       14    1    4    4    0    0 -0.10214466489E+02 -0.28378003610E+02 -0.28934268341E+03  0.29091035536E+03  0.00000000000E+00 0. -1.
       -5    1    5    5    0  504  0.47607439284E+02  0.34260240687E+02 -0.35004406005E+03  0.35495516103E+03  0.47000000000E+01 0.  1.
        3    1    6    6  502    0 -0.47735957033E+02 -0.38658233705E+02 -0.45934752216E+03  0.46343643225E+03  0.00000000000E+00 0. -1.
       -4    1    6    6    0  502 -0.21254642774E+01 -0.28966302967E+02 -0.42223007363E+02  0.51247894169E+02  0.00000000000E+00 0.  1.
</event>
<event>
12   0  0.1523332E-01  0.1734280E+03  0.7957747E-01  0.1179705E+00
       -3   -1    0    0    0  501  0.00000000000E+00  0.00000000000E+00  0.30253363279E+03  0.30253363279E+03  0.00000000000E+00 0.  1.
        3   -1    0    0  502    0  0.00000000000E+00  0.00000000000E+00 -0.10485323680E+03  0.10485323680E+03  0.00000000000E+00 0. -1.
        6    2    1    2  502    0 -0.17531688244E+02 -0.23400603954E+01  0.52691564066E+02  0.18165499728E+03  0.17294305750E+03 0.  0.
       24    2    3    3    0    0 -0.36620632624E+02  0.23588050118E+02  0.92219863877E+02  0.13045703640E+03  0.81345363788E+02 0.  0.
       -6    2    1    2    0  501  0.17531688244E+02  0.23400603954E+01  0.14498883193E+03  0.22573187231E+03  0.17210543518E+03 0.  0.
      -24    2    5    5    0    0  0.23977115258E+01  0.54587210362E+02  0.48854457486E+02  0.11517550714E+03  0.88843271399E+02 0.  0.
        5    1    3    3  502    0  0.19088944380E+02 -0.25928110513E+02 -0.39528299811E+02  0.51197960880E+02  0.47000000000E+01 0. -1.
      -13    1    4    4    0    0 -0.72802374430E+01 -0.23537309558E+02  0.63166288338E+02  0.67801082446E+02  0.00000000000E+00 0.  1.
       14    1    4    4    0    0 -0.29340395181E+02  0.47125359675E+02  0.29053575539E+02  0.62655953951E+02  0.00000000000E+00 0. -1.
       -5    1    5    5    0  501  0.15133976718E+02 -0.52247149967E+02  0.96134374443E+02  0.11055636517E+03  0.47000000000E+01 0.  1.
        3    1    6    6  503    0 -0.30246697140E+02  0.19356735730E+02  0.56093417576E+02  0.66603433856E+02  0.00000000000E+00 0. -1.
       -4    1    6    6    0  503  0.32644408666E+02  0.35230474632E+02 -0.72389600897E+01  0.48572073284E+02  0.00000000000E+00 0.  1.
</event>
<event>
12   0  0.1523332E-01  0.1940407E+03  0.7957747E-01  0.1160938E+00
       21   -1    0    0  501  503  0.00000000000E+00  0.00000000000E+00  0.15547103645E+03  0.15547103645E+03  0.00000000000E+00 0.  1.
       21   -1    0    0  503  504  0.00000000000E+00  0.00000000000E+00 -0.29290459077E+03  0.29290459077E+03  0.00000000000E+00 0.  1.
        6    2    1    2  501    0 -0.87517443661E+02 -0.10556666641E+02  0.25101220170E+02  0.19525635755E+03  0.17240715692E+03 0.  0.
       24    2    3    3    0    0 -0.75524809104E+02  0.49315203500E+02 -0.15022535060E+02  0.12204112791E+03  0.80823104717E+02 0.  0.
       -6    2    1    2    0  504  0.87517443661E+02  0.10556666641E+02 -0.16253477449E+03  0.25311926967E+03  0.17286140576E+03 0.  0.
      -24    2    5    5    0    0  0.11576056865E+03 -0.46137916160E+00 -0.73639990568E+02  0.15907968199E+03  0.80515680994E+02 0.  0.
        5    1    3    3  501    0 -0.11992634557E+02 -0.59871870141E+02  0.40123755229E+02  0.73215229641E+02  0.47000000000E+01 0. -1.
        2    1    4    4  502    0 -0.19336179583E+02  0.36345070487E+02 -0.41615989798E+02  0.58538385666E+02  0.00000000000E+00 0. -1.
       -1    1    4    4    0  502 -0.56188629521E+02  0.12970133013E+02  0.26593454738E+02  0.63502742246E+02  0.00000000000E+00 0.  1.
       -5    1    5    5    0  504 -0.28243124987E+02  0.11018045802E+02 -0.88894783925E+02  0.94039587682E+02  0.47000000000E+01 0.  1.
       13    1    6    6    0    0  0.52719656284E+02 -0.23613769064E+02  0.21621845889E+01  0.57806983059E+02  0.00000000000E+00 0. -1.
      -14    1    6    6    0    0  0.63040912364E+02  0.23152389902E+02 -0.75802175157E+02  0.10127269893E+03  0.00000000000E+00 0.  1.
</event>
<event>
12   0  0.1523332E-01  0.1984305E+03  0.7957747E-01  0.1157270E+00
       21   -1    0    0  501  503  0.00000000000E+00  0.00000000000E+00  0.20599617285E+03  0.20599617285E+03  0.00000000000E+00 0.  1.
       21   -1    0    0  503  504  0.00000000000E+00  0.00000000000E+00 -0.44444072750E+03  0.44444072750E+03  0.00000000000E+00 0. -1.
        6    2    1    2  501    0  0.63964197878E+02 -0.72909712115E+02  0.12749851219E+03  0.23415695077E+03  0.17078162152E+03 0.  0.
       24    2    3    3    0    0  0.10955136029E+03 -0.47247169915E+02  0.88795215585E+02  0.16891286585E+03  0.80082272265E+02 0.  0.
       -6    2    1    2    0  504 -0.63964197878E+02  0.72909712115E+02 -0.36594306684E+03  0.41627994958E+03  0.17311101504E+03 0.  0.
      -24    2    5    5    0    0  0.30513985731E+02  0.47208491875E+02 -0.15209876994E+03  0.18103932126E+03  0.80507484082E+02 0.  0.
        5    1    3    3  501    0 -0.45587162411E+02 -0.25662542200E+02  0.38703296609E+02  0.65244084921E+02  0.47000000000E+01 0. -1.
      -13    1    4    4    0    0  0.36033552845E+02 -0.34933062874E+02 -0.34601299571E+01  0.50306145864E+02  0.00000000000E+00 0.  1.
       14    1    4    4    0    0  0.73517807444E+02 -0.12314107041E+02  0.92255345542E+02  0.11860671998E+03  0.00000000000E+00 0. -1.
       -5    1    5    5    0  504 -0.94478183608E+02  0.25701220240E+02 -0.21384429690E+03  0.23524062833E+03  0.47000000000E+01 0.  1.
        1    1    6    6  502    0  0.21966568431E+02  0.63073653105E+01 -0.13325762476E+03  0.13520320833E+03  0.00000000000E+00 0. -1.
       -2    1    6    6    0  502  0.85474173000E+01  0.40901126564E+02 -0.18841145184E+02  0.45836112931E+02  0.00000000000E+00 0.  1.
</event>
<event>
12   0  0.1523332E-01  0.2021927E+03  0.7957747E-01  0.1154209E+00
       21   -1    0    0  501  503  0.00000000000E+00  0.00000000000E+00  0.87976241970E+03  0.87976241970E+03  0.00000000000E+00 0.  1.
       21   -1    0    0  503  504  0.00000000000E+00  0.00000000000E+00 -0.17021643054E+03  0.17021643054E+03  0.00000000000E+00 0.  1.
        6    2    1    2  501    0 -0.56497448497E+02  0.87183065406E+02  0.80324124401E+03  0.82829847969E+03  0.17346188860E+03 0.  0.
       24    2    3    3    0    0 -0.70567857059E+02 -0.42183324098E+01  0.49359496796E+03  0.50510334020E+03  0.80596371533E+02 0.  0.
       -6    2    1    2    0  504  0.56497448497E+02 -0.87183065406E+02 -0.93695254849E+02  0.22168037055E+03  0.17196085987E+03 0.  0.
      -24    2    5    5    0    0  0.87836925475E+02 -0.10976763119E+03 -0.67571600846E+02  0.17481075643E+03  0.78921612944E+02 0.  0.
        5    1    3    3  501    0  0.14070408562E+02  0.91401397816E+02  0.30964627605E+03  0.32319513949E+03  0.47000000000E+01 0. -1.
        4    1    4    4  502    0 -0.20066906541E+02 -0.40354408724E+02  0.21449214799E+03  0.21917582118E+03  0.00000000000E+00 0. -1.
       -3    1    4    4    0  502 -0.50500950518E+02  0.36136076314E+02  0.27910281998E+03  0.28592751902E+03  0.00000000000E+00 0.  1.
       -5    1    5    5    0  504 -0.31339476979E+02  0.22584565785E+02 -0.26123654003E+02  0.46869614117E+02  0.47000000000E+01 0.  1.
       11    1    6    6    0    0 -0.87252910504E+01 -0.31431211481E+02 -0.31490589172E+02  0.45339926836E+02  0.00000000000E+00 0. -1.
      -12    1    6    6    0    0  0.96562216526E+02 -0.78336419709E+02 -0.36081011675E+02  0.12947082960E+03  0.00000000000E+00 0.  1.
</event>
<event>
12   0  0.1523332E-01  0.1833515E+03  0.7957747E-01  0.1170332E+00
       21   -1    0    0  504  503  0.00000000000E+00  0.00000000000E+00  0.10239026249E+03  0.10239026249E+03  0.00000000000E+00 0.  1.
       21   -1    0    0  501  504  0.00000000000E+00  0.00000000000E+00 -0.35086441825E+03  0.35086441825E+03  0.00000000000E+00 0. -1.
        6    2    1    2  501    0  0.54818127829E+02  0.25495580123E+02 -0.18277071885E+03  0.25848635440E+03  0.17249639996E+03 0.  0.
       24    2    3    3    0    0  0.45038376626E+02 -0.43770461299E+02 -0.70158240717E+02  0.12583233728E+03  0.83470292405E+02 0.  0.
       -6    2    1    2    0  503 -0.54818127829E+02 -0.25495580123E+02 -0.65703436912E+02  0.19476832634E+03  0.17309739333E+03 0.  0.
      -24    2    5    5    0    0 -0.99203382780E+02 -0.38037466556E+02 -0.66381834625E+02  0.14840131225E+03  0.79550245072E+02 0.  0.
        5    1    3    3  501    0  0.97797512029E+01  0.69266041422E+02 -0.11261247813E+03  0.13265401712E+03  0.47000000000E+01 0. -1.
      -13    1    4    4    0    0  0.20123039200E+01  0.22502186893E+02 -0.43605040275E+01  0.23008949942E+02  0.00000000000E+00 0.  1.
       14    1    4    4    0    0  0.43026072706E+02 -0.66272648192E+02 -0.65797736689E+02  0.10282338734E+03  0.00000000000E+00 0. -1.
       -5    1    5    5    0  503  0.44385254951E+02  0.12541886433E+02  0.67839771316E+00  0.46367014092E+02  0.47000000000E+01 0.  1.
        1    1    6    6  502    0 -0.28470489420E+02  0.81633622892E+01 -0.55909709714E+02  0.63270094768E+02  0.00000000000E+00 0. -1.
       -2    1    6    6    0  502 -0.70732893360E+02 -0.46200828845E+02 -0.10472124912E+02  0.85131217478E+02  0.00000000000E+00 0.  1.
</event>
<event>
12   0  0.1523332E-01  0.1749134E+03  0.7957747E-01  0.1178259E+00
       21   -1    0    0  504  503  0.00000000000E+00  0.00000000000E+00  0.69490855273E+03  0.69490855273E+03  0.00000000000E+00 0. -1.
       21   -1    0    0  501  504  0.00000000000E+00  0.00000000000E+00 -0.49391677719E+02  0.49391677719E+02  0.00000000000E+00 0. -1.
        6    2    1    2  501    0 -0.36939102687E+01  0.26630665357E+02  0.44542109002E+03  0.47853146635E+03  0.17282817924E+03 0.  0.
       24    2    3    3    0    0  0.86503710490E+01 -0.16524271691E+02  0.10137642272E+03  0.13153931518E+03  0.81716166583E+02 0.  0.
       -6    2    1    2    0  503  0.36939102687E+01 -0.26630665357E+02  0.20009578499E+03  0.26576876410E+03  0.17283482140E+03 0.  0.
      -24    2    5    5    0    0  0.26600464722E+02 -0.80240316875E+02  0.12558636600E+03  0.17104575480E+03  0.79615461650E+02 0.  0.
        5    1    3    3  501    0 -0.12344281318E+02  0.43154937048E+02  0.34404466730E+03  0.34699215117E+03  0.47000000000E+01 0. -1.
        4    1    4    4  502    0 -0.23489425426E+02  0.22580916066E+02  0.32084558096E+02  0.45728216076E+02  0.00000000000E+00 0. -1.
       -3    1    4    4    0  502  0.32139796475E+02 -0.39105187757E+02  0.69291864623E+02  0.85811099107E+02  0.00000000000E+00 0.  1.
       -5    1    5    5    0  503 -0.22906554453E+02  0.53609651518E+02  0.74509418985E+02  0.94723009297E+02  0.47000000000E+01 0.  1.
       13    1    6    6    0    0 -0.12134436224E+02 -0.45709306552E+02  0.16226566097E+02  0.49998866940E+02  0.00000000000E+00 0. -1.
      -14    1    6    6    0    0  0.38734900945E+02 -0.34531010323E+02  0.10935979991E+03  0.12104688786E+03  0.00000000000E+00 0.  1.
</event>
<event>
12   0  0.1523332E-01  0.2616473E+03  0.7957747E-01  0.1113775E+00
       21   -1    0    0  504  503  0.00000000000E+00  0.00000000000E+00  0.11766184100E+03  0.11766184100E+03  0.00000000000E+00 0. -1.
       21   -1    0    0  501  504  0.00000000000E+00  0.00000000000E+00 -0.75476697147E+03  0.75476697147E+03  0.00000000000E+00 0. -1.
        6    2    1    2  501    0 -0.19456204628E+03 -0.24664067611E+02 -0.10832114365E+03  0.28245271328E+03  0.17199813659E+03 0.  0.
       24    2    3    3    0    0 -0.50372693476E+02 -0.58829393811E+02 -0.32606492616E+02  0.11598158257E+03  0.79938966157E+02 0.  0.
       -6    2    1    2    0  503  0.19456204628E+03  0.24664067611E+02 -0.52878398682E+03  0.58997609919E+03  0.17319522747E+03 0.  0.
      -24    2    5    5    0    0  0.12497294144E+03  0.37388825728E+02 -0.19097075309E+03  0.24480305004E+03  0.80265461999E+02 0.  0.
        5    1    3    3  501    0 -0.14418935281E+03  0.34165326200E+02 -0.75714651036E+02  0.16647113071E+03  0.47000000000E+01 0. -1.
        4    1    4    4  502    0 -0.12783432216E+02 -0.63029809713E+02 -0.42248473081E+02  0.76948726626E+02  0.00000000000E+00 0. -1.
       -3    1    4    4    0  502 -0.37589261260E+02  0.42004159013E+01  0.96419804647E+01  0.39032855944E+02  0.00000000000E+00 0.  1.
       -5    1    5    5    0  503  0.69589104840E+02 -0.12724758116E+02 -0.33781323373E+03  0.34517304915E+03  0.47000000000E+01 0.  1.
       13    1    6    6    0    0  0.46430406946E+02 -0.67146409570E+01 -0.12393922619E+03  0.13252094506E+03  0.00000000000E+00 0. -1.
      -14    1    6    6    0    0  0.78542534498E+02  0.44103466685E+02 -0.67031526903E+02  0.11228210498E+03  0.00000000000E+00 0.  1.
</event>
<event>
12   0  0.1523332E-01  0.1768317E+03  0.7957747E-01  0.1176414E+00
       21   -1    0    0  504  503  0.00000000000E+00  0.00000000000E+00  0.12842510382E+04  0.12842510382E+04  0.00000000000E+00 0.  1.
       21   -1    0    0  501  504  0.00000000000E+00  0.00000000000E+00 -0.29732912041E+02  0.29732912041E+02  0.00000000000E+00 0.  1.
        6    2    1    2  501    0 -0.95982166892E+01 -0.17053062573E+02  0.33957610616E+03  0.38285946360E+03  0.17574556691E+03 0.  0.
       24    2    3    3    0    0 -0.55644024524E+02  0.14231404483E+02  0.29568220343E+03  0.31181230324E+03  0.80623549218E+02 0.  0.
       -6    2    1    2    0  503  0.95982166892E+01  0.17053062573E+02  0.91494202001E+03  0.93112448665E+03  0.17172937126E+03 0.  0.
      -24    2    5    5    0    0  0.40230139984E+02 -0.12279617849E+02  0.26161897671E+03  0.27640942667E+03  0.78666568483E+02 0.  0.
        5    1    3    3  501    0  0.46045807835E+02 -0.31284467056E+02  0.43893902728E+02  0.71047160357E+02  0.47000000000E+01 0. -1.
      -13    1    4    4    0    0 -0.59542271246E+02 -0.18726696710E+02  0.15138914710E+03  0.16375177891E+03  0.00000000000E+00 0.  1.
       14    1    4    4    0    0  0.38982467221E+01  0.32958101193E+02  0.14429305633E+03  0.14806052434E+03  0.00000000000E+00 0. -1.
       -5    1    5    5    0  503 -0.30631923295E+02  0.29332680422E+02  0.65332304329E+03  0.65471505998E+03  0.47000000000E+01 0.  1.
        1    1    6    6  502    0 -0.20419172861E+02 -0.80660799114E+01  0.31506517374E+02  0.38401365894E+02  0.00000000000E+00 0. -1.
       -2    1    6    6    0  502  0.60649312845E+02 -0.42135379371E+01  0.23011245934E+03  0.23800806077E+03  0.00000000000E+00 0.  1.
</event>
<event>
12   0  0.1523332E-01  0.1805800E+03  0.7957747E-01  0.1172883E+00
        2   -1    0    0  502    0  0.00000000000E+00  0.00000000000E+00  0.61339712391E+03  0.61339712391E+03  0.00000000000E+00 0. -1.
       -2   -1    0    0    0  501  0.00000000000E+00  0.00000000000E+00 -0.53601787827E+02  0.53601787827E+02  0.00000000000E+00 0.  1.
        6    2    1    2  502    0 -0.48965988161E+02  0.15988821160E+02  0.25054163380E+03  0.30916113498E+03  0.17365536765E+03 0.  0.
       24    2    3    3    0    0  0.83471741573E+01  0.65556659800E+02  0.16243724523E+03  0.19285875973E+03  0.80257657626E+02 0.  0.
       -6    2    1    2    0  501  0.48965988161E+02 -0.15988821160E+02  0.30925370228E+03  0.35783777676E+03  0.17250133826E+03 0.  0.
      -24    2    5    5    0    0  0.66000342088E+02 -0.67921027906E+02  0.23108761531E+03  0.26234353366E+03  0.80332636706E+02 0.  0.
        5    1    3    3  502    0 -0.57313162318E+02 -0.49567838639E+02  0.88104388574E+02  0.11630237525E+03  0.47000000000E+01 0. -1.
      -11    1    4    4    0    0 -0.86685311678E+01  0.77313556522E+02  0.97660478855E+02  0.12486031629E+03  0.00000000000E+00 0.  1.
       12    1    4    4    0    0  0.17015705325E+02 -0.11756896723E+02  0.64776766375E+02  0.67998443440E+02  0.00000000000E+00 0. -1.
       -5    1    5    5    0  501 -0.17034353928E+02  0.51932206745E+02  0.78166086976E+02  0.95494243095E+02  0.47000000000E+01 0.  1.
        1    1    6    6  503    0 -0.14817979025E+02 -0.30969104699E+02  0.80069223105E+02  0.87119104890E+02  0.00000000000E+00 0. -1.
       -2    1    6    6    0  503  0.80818321113E+02 -0.36951923207E+02  0.15101839220E+03  0.17522442877E+03  0.00000000000E+00 0.  1.
</event>
<event>
12   0  0.1523332E-01  0.1788773E+03  0.7957747E-01  0.1174475E+00
       21   -1    0    0  504  503  0.00000000000E+00  0.00000000000E+00  0.30866990867E+03  0.30866990867E+03  0.00000000000E+00 0. -1.
       21   -1    0    0  501  504  0.00000000000E+00  0.00000000000E+00 -0.34538337205E+03  0.34538337205E+03  0.00000000000E+00 0. -1.
        6    2    1    2  501    0 -0.21123578150E+02  0.37954505904E+02 -0.29229701207E+03  0.34268737628E+03  0.17352332559E+03 0.  0.
       24    2    3    3    0    0 -0.11296172938E+02 -0.30776939645E+02 -0.23805483871E+03  0.25445533635E+03  0.83681470007E+02 0.  0.
       -6    2    1    2    0  503  0.21123578150E+02 -0.37954505904E+02  0.25558354870E+03  0.31136590444E+03  0.17245006817E+03 0.  0.
      -24    2    5    5    0    0  0.39770946348E+02 -0.82420685909E+01  0.26036759636E+03  0.27565133621E+03  0.80887045005E+02 0.  0.
        5    1    3    3  501    0 -0.98274052117E+01  0.68731445549E+02 -0.54242173357E+02  0.88232039934E+02  0.47000000000E+01 0. -1.
      -13    1    4    4    0    0 -0.44997658336E+02 -0.32254559256E+02 -0.13122510641E+03  0.14242603133E+03  0.00000000000E+00 0.  1.
       14    1    4    4    0    0  0.33701485398E+02  0.14776196106E+01 -0.10682973230E+03  0.11202930501E+03  0.00000000000E+00 0. -1.
       -5    1    5    5    0  503 -0.18647368198E+02 -0.29712437314E+02 -0.47840476659E+01  0.35714568230E+02  0.47000000000E+01 0.  1.
        1    1    6    6  502    0 -0.19609744889E+02  0.76943609139E+01  0.26583646732E+02  0.33918071261E+02  0.00000000000E+00 0. -1.
       -2    1    6    6    0  502  0.59380691237E+02 -0.15936429505E+02  0.23378394963E+03  0.24173326495E+03  0.00000000000E+00 0.  1.
</event>
<event>
12   0  0.1523332E-01  0.2518824E+03  0.7957747E-01  0.1119562E+00
       21   -1    0    0  504  503  0.00000000000E+00  0.00000000000E+00  0.13477969431E+04  0.13477969431E+04  0.00000000000E+00 0.  1.
       21   -1    0    0  501  504  0.00000000000E+00  0.00000000000E+00 -0.48181826084E+02  0.48181826084E+02  0.00000000000E+00 0.  1.
        6    2    1    2  501    0 -0.75110573969E+02  0.16656600802E+03  0.53153350497E+03  0.58819435230E+03  0.17337501499E+03 0.  0.
       24    2    3    3    0    0 -0.26379152850E+02  0.80404958977E+02  0.11700589734E+03  0.16198582908E+03  0.73404439088E+02 0.  0.
       -6    2    1    2    0  503  0.75110573969E+02 -0.16656600802E+03  0.76808161203E+03  0.80778441687E+03  0.17082291429E+03 0.  0.
      -24    2    5    5    0    0  0.19168980962E+02 -0.60364954914E+02  0.17743415486E+03  0.20504514141E+03  0.80927455757E+02 0.  0.
        5    1    3    3  501    0 -0.48731421119E+02  0.86161049044E+02  0.41452760763E+03  0.42620852322E+03  0.47000000000E+01 0. -1.
        2    1    4    4  502    0 -0.23029249717E+02  0.19132437731E+02  0.84740833032E-01  0.29940001621E+02  0.00000000000E+00 0. -1.
       -1    1    4    4    0  502 -0.33499031327E+01  0.61272521246E+02  0.11692115651E+03  0.13204582746E+03  0.00000000000E+00 0.  1.
       -5    1    5    5    0  503  0.55941593007E+02 -0.10620105311E+03  0.59064745718E+03  0.60273927546E+03  0.47000000000E+01 0.  1.
       11    1    6    6    0    0  0.41182976511E+02 -0.52173933224E+02  0.76177146006E+02  0.10109952738E+03  0.00000000000E+00 0. -1.
      -12    1    6    6    0    0 -0.22013995548E+02 -0.81910216899E+01  0.10125700885E+03  0.10394561404E+03  0.00000000000E+00 0.  1.
</event>
<event>
12   0  0.1523332E-01  0.2331080E+03  0.7957747E-01  0.1131535E+00
       21   -1    0    0  501  503  0.00000000000E+00  0.00000000000E+00  0.37995026024E+03  0.37995026024E+03  0.00000000000E+00 0. -1.
       21   -1    0    0  503  504  0.00000000000E+00  0.00000000000E+00 -0.39126822085E+03  0.39126822085E+03  0.00000000000E+00 0.  1.
        6    2    1    2  501    0 -0.15597756861E+03 -0.20921310549E+02  0.30469444215E+03  0.37853133757E+03  0.16025157504E+03 0.  0.
       24    2    3    3    0    0 -0.73599355637E+02  0.38497046917E+02  0.20955417816E+03  0.23928166609E+03  0.80273746459E+02 0.  0.
       -6    2    1    2    0  504  0.15597756861E+03  0.20921310549E+02 -0.31601240276E+03  0.39268714351E+03  0.17196700507E+03 0.  0.
      -24    2    5    5    0    0  0.16677857995E+03  0.51144816308E+02 -0.22721240679E+03  0.29814799061E+03  0.82679257005E+02 0.  0.
        5    1    3    3  501    0 -0.82378212970E+02 -0.59418357465E+02  0.95140263989E+02  0.13924967148E+03  0.47000000000E+01 0. -1.
      -11    1    4    4    0    0 -0.70355165908E+02 -0.51729869214E+01  0.11223726016E+03  0.13256625412E+03  0.00000000000E+00 0.  1.
       12    1    4    4    0    0 -0.32441897291E+01  0.43670033838E+02  0.97316918000E+02  0.10671541197E+03  0.00000000000E+00 0. -1.
       -5    1    5    5    0  504 -0.10801011345E+02 -0.30223505759E+02 -0.88799995970E+02  0.94539152898E+02  0.47000000000E+01 0.  1.
        3    1    6    6  502    0  0.75679989744E+02  0.33024087068E+02 -0.46005703203E+02  0.94522885596E+02  0.00000000000E+00 0. -1.
       -4    1    6    6    0  502  0.91098590208E+02  0.18120729239E+02 -0.18120670359E+03  0.20362510502E+03  0.00000000000E+00 0.  1.
</event>
<event>
12   0  0.1523332E-01  0.1800816E+03  0.7957747E-01  0.1173347E+00
       21   -1    0    0  504  503  0.00000000000E+00  0.00000000000E+00  0.22581142795E+03  0.22581142795E+03  0.00000000000E+00 0. -1.
       21   -1    0    0  501  504  0.00000000000E+00  0.00000000000E+00 -0.16367610855E+03  0.16367610855E+03  0.00000000000E+00 0. -1.
        6    2    1    2  501    0  0.46582973224E+02  0.47741456590E+00  0.10129049571E+03  0.20661354653E+03  0.17395169379E+03 0.  0.
       24    2    3    3    0    0 -0.16482094231E+02 -0.43645841495E+02  0.88625420351E+02  0.12846907397E+03  0.80456316870E+02 0.  0.
       -6    2    1    2    0  503 -0.46582973224E+02 -0.47741456590E+00 -0.39155176313E+02  0.18287398997E+03  0.17245163687E+03 0.  0.
      -24    2    5    5    0    0 -0.16925920839E+02 -0.27900823028E+01 -0.87110254196E+02  0.12624653477E+03  0.89753661761E+02 0.  0.
        5    1    3    3  501    0  0.63065067455E+02  0.44123256061E+02  0.12665075361E+02  0.78144472564E+02  0.47000000000E+01 0. -1.
      -11    1    4    4    0    0 -0.21498245236E+02 -0.96241546012E+01 -0.88061630992E+01  0.25146518816E+02  0.00000000000E+00 0.  1.
       12    1    4    4    0    0  0.50161510053E+01 -0.34021686894E+02  0.97431583450E+02  0.10332255515E+03  0.00000000000E+00 0. -1.
       -5    1    5    5    0  503 -0.29657052385E+02  0.23126677369E+01  0.47955077883E+02  0.56627455205E+02  0.47000000000E+01 0.  1.
        3    1    6    6  502    0 -0.52256570367E+02  0.71274640643E+01 -0.63782428878E+02  0.82763205134E+02  0.00000000000E+00 0. -1.
       -4    1    6    6    0  502  0.35330649528E+02 -0.99175463670E+01 -0.23327825318E+02  0.43483329634E+02  0.00000000000E+00 0.  1.
</event>
<event>
12   0  0.1523332E-01  0.2039573E+03  0.7957747E-01  0.1152798E+00
       21   -1    0    0  501  503  0.00000000000E+00  0.00000000000E+00  0.20869684647E+03  0.20869684647E+03  0.00000000000E+00 0.  1.
       21   -1    0    0  503  504  0.00000000000E+00  0.00000000000E+00 -0.20157922626E+03  0.20157922626E+03  0.00000000000E+00 0.  1.
        6    2    1    2  501    0 -0.72648230177E+02 -0.76996724362E+02  0.25422113524E+02  0.20553550947E+03  0.17433387763E+03 0.  0.
       24    2    3    3    0    0 -0.10737431888E+03 -0.21914861904E+02  0.13859816090E+01  0.13596728076E+03  0.80471578625E+02 0.  0.
       -6    2    1    2    0  504  0.72648230177E+02  0.76996724362E+02 -0.18304493312E+02  0.20474056325E+03  0.17429108656E+03 0.  0.
      -24    2    5    5    0    0  0.52687275242E+02  0.99728478765E+02  0.35556609452E+02  0.14278670323E+03  0.80012822071E+02 0.  0.
        5    1    3    3  501    0  0.34726088702E+02 -0.55081862458E+02  0.24036131915E+02  0.69568228710E+02  0.47000000000E+01 0. -1.
        4    1    4    4  502    0 -0.56972914893E+02  0.28935957377E+02 -0.49454938337E+01  0.64091033460E+02  0.00000000000E+00 0. -1.
       -3    1    4    4    0  502 -0.50401403986E+02 -0.50850819281E+02  0.63314754428E+01  0.71876247305E+02  0.00000000000E+00 0.  1.
       -5    1    5    5    0  504  0.19960954935E+02 -0.22731754403E+02 -0.53861102763E+02  0.61953860017E+02  0.47000000000E+01 0.  1.
       13    1    6    6    0    0  0.34410949098E+02 -0.16834173727E+01  0.15631442427E+02  0.37832384331E+02  0.00000000000E+00 0. -1.
      -14    1    6    6    0    0  0.18276326145E+02  0.10141189614E+03  0.19925167025E+02  0.10495431890E+03  0.00000000000E+00 0.  1.
</event>
<event>
12   0  0.1523332E-01  0.2275337E+03  0.7957747E-01  0.1135329E+00
       21   -1    0    0  504  503  0.00000000000E+00  0.00000000000E+00  0.43021073669E+03  0.43021073669E+03  0.00000000000E+00 0.  1.
       21   -1    0    0  501  504  0.00000000000E+00  0.00000000000E+00 -0.15355609896E+03  0.15355609896E+03  0.00000000000E+00 0. -1.
        6    2    1    2  501    0 -0.54730604630E+02  0.13693332059E+03  0.25451521240E+01  0.22754797299E+03  0.17327847195E+03 0.  0.
       24    2    3    3    0    0  0.24041703275E+02  0.10446055300E+03 -0.27659757016E+02  0.13702734737E+03  0.80755316469E+02 0.  0.
       -6    2    1    2    0  503  0.54730604630E+02 -0.13693332059E+03  0.27410948561E+03  0.35621886266E+03  0.17323306452E+03 0.  0.
      -24    2    5    5    0    0  0.10127853221E+03 -0.85451961082E+02  0.15833270721E+03  0.22115076001E+03  0.79240354238E+02 0.  0.
        5    1    3    3  501    0 -0.78772307905E+02  0.32472767585E+02  0.30204909140E+02  0.90520625625E+02  0.47000000000E+01 0. -1.
        2    1    4    4  502    0  0.42905746217E+02  0.34466839280E+02 -0.33286015282E+02  0.64318153594E+02  0.00000000000E+00 0. -1.
       -1    1    4    4    0  502 -0.18864042943E+02  0.69993713724E+02  0.56262582652E+01  0.72709193773E+02  0.00000000000E+00 0.  1.
       -5    1    5    5    0  503 -0.46547927578E+02 -0.51481359508E+02  0.11577677840E+03  0.13506810265E+03  0.47000000000E+01 0.  1.
       13    1    6    6    0    0  0.91246951498E+02 -0.34539410482E+02  0.75330266162E+02  0.12326242750E+03  0.00000000000E+00 0. -1.
      -14    1    6    6    0    0  0.10031580710E+02 -0.50912550600E+02  0.83002441048E+02  0.97888332503E+02  0.00000000000E+00 0.  1.
</event>
<event>
12   0  0.1523332E-01  0.1803437E+03  0.7957747E-01  0.1173103E+00
       -4   -1    0    0    0  501  0.00000000000E+00  0.00000000000E+00  0.69361462131E+03  0.69361462131E+03  0.00000000000E+00 0. -1.
        4   -1    0    0  502    0  0.00000000000E+00  0.00000000000E+00 -0.47264943584E+02  0.47264943584E+02  0.00000000000E+00 0.  1.
        6    2    1    2  502    0  0.26353141623E+02  0.39761492485E+02  0.29256189577E+03  0.34435204583E+03  0.17524384226E+03 0.  0.
       24    2    3    3    0    0 -0.35998174484E+01 -0.42427081046E+02  0.17626224616E+03  0.19875039791E+03  0.81365381803E+02 0.  0.
       -6    2    1    2    0  501 -0.26353141623E+02 -0.39761492485E+02  0.35378778195E+03  0.39652751906E+03  0.17260595112E+03 0.  0.
      -24    2    5    5    0    0 -0.76167305514E+02 -0.42113616540E+02  0.30212413111E+03  0.32456776483E+03  0.80561952796E+02 0.  0.
        5    1    3    3  502    0  0.29952959071E+02  0.82188573531E+02  0.11629964961E+03  0.14560164792E+03  0.47000000000E+01 0. -1.
        4    1    4    4  503    0 -0.23991074103E+02 -0.60119650302E+02  0.11993700368E+03  0.13628950378E+03  0.00000000000E+00 0. -1.
       -3    1    4    4    0  503  0.20391256655E+02  0.17692569256E+02  0.56325242480E+02  0.62460894128E+02  0.00000000000E+00 0.  1.
       -5    1    5    5    0  501  0.49814163891E+02  0.23521240554E+01  0.51663650835E+02  0.71959754233E+02  0.47000000000E+01 0.  1.
       13    1    6    6    0    0 -0.34551686419E+02  0.22596263529E+02  0.93480222815E+02  0.10219081278E+03  0.00000000000E+00 0. -1.
      -14    1    6    6    0    0 -0.41615619095E+02 -0.64709880070E+02  0.20864390830E+03  0.22237695205E+03  0.00000000000E+00 0.  1.
</event>
<event>
12   0  0.1523332E-01  0.2068676E+03  0.7957747E-01  0.1150506E+00
       21   -1    0    0  504  503  0.00000000000E+00  0.00000000000E+00  0.40811689718E+03  0.40811689718E+03  0.00000000000E+00 0. -1.
       21   -1    0    0  501  504  0.00000000000E+00  0.00000000000E+00 -0.12355409516E+03  0.12355409516E+03  0.00000000000E+00 0. -1.
        6    2    1    2  501    0 -0.91539142746E+02  0.53324203077E+02  0.30399038219E+02  0.20396165878E+03  0.17161984570E+03 0.  0.
       24    2    3    3    0    0 -0.10512994637E+03 -0.12957635842E+02  0.97502859681E+01  0.13306417587E+03  0.79942484784E+02 0.  0.
       -6    2    1    2    0  503  0.91539142746E+02 -0.53324203077E+02  0.25416376380E+03  0.32770933356E+03  0.17768315390E+03 0.  0.
      -24    2    5    5    0    0  0.74410683914E+02  0.96849022541E+01  0.23575521841E+03  0.25970568660E+03  0.78966913510E+02 0.  0.
        5    1    3    3  501    0  0.13590803622E+02  0.66281838919E+02  0.20648752250E+02  0.70897482911E+02  0.47000000000E+01 0. -1.
      -13    1    4    4    0    0 -0.18171906689E+02 -0.38078108940E+02  0.28888922612E+01  0.42290735057E+02  0.00000000000E+00 0.  1.
       14    1    4    4    0    0 -0.86958039678E+02  0.25120473098E+02  0.68613937069E+01  0.90773440813E+02  0.00000000000E+00 0. -1.
       -5    1    5    5    0  503  0.17128458832E+02 -0.63009105331E+02  0.18408545391E+02  0.68003646961E+02  0.47000000000E+01 0.  1.
        1    1    6    6  502    0  0.45341209913E+02 -0.47501441828E+01  0.38129987936E+02  0.59433030935E+02  0.00000000000E+00 0. -1.
       -2    1    6    6    0  502  0.29069474000E+02  0.14435046437E+02  0.19762523048E+03  0.20027265566E+03  0.00000000000E+00 0.  1.
</event>
<event>
12   0  0.1523332E-01  0.1831035E+03  0.7957747E-01  0.1170558E+00
       21   -1    0    0  501  503  0.00000000000E+00  0.00000000000E+00  0.57428150142E+03  0.57428150142E+03  0.00000000000E+00 0.  1.
       21   -1    0    0  503  504  0.00000000000E+00  0.00000000000E+00 -0.61632280480E+02  0.61632280480E+02  0.00000000000E+00 0.  1.
        6    2    1    2  501    0 -0.42193213794E+02  0.43224899508E+02  0.18201452115E+03  0.25796381258E+03  0.17253226789E+03 0.  0.
       24    2    3    3    0    0  0.31761869206E+02  0.58806713540E+02  0.88813265311E+02  0.13787754642E+03  0.81580486757E+02 0.  0.
       -6    2    1    2    0  504  0.42193213794E+02 -0.43224899508E+02  0.33063469979E+03  0.37794996932E+03  0.17285316131E+03 0.  0.
      -24    2    5    5    0    0  0.91958538746E+02 -0.16371254003E+02  0.19057762655E+03  0.22683484893E+03  0.80061389840E+02 0.  0.
        5    1    3    3  501    0 -0.73955083000E+02 -0.15581814032E+02  0.93201255842E+02  0.12008626616E+03  0.47000000000E+01 0. -1.
        4    1    4    4  502    0 -0.12825340164E+01  0.43913930323E+02  0.91533138123E+02  0.10153025926E+03  0.00000000000E+00 0. -1.
       -3    1    4    4    0  502  0.33044403223E+02  0.14892783218E+02 -0.27198728121E+01  0.36347287167E+02  0.00000000000E+00 0.  1.
       -5    1    5    5    0  504 -0.49765324952E+02 -0.26853645506E+02  0.14005707324E+03  0.15111512038E+03  0.47000000000E+01 0.  1.
       11    1    6    6    0    0  0.32218414228E+02  0.32213569959E+02  0.80483694399E+02  0.92484406085E+02  0.00000000000E+00 0. -1.
      -12    1    6    6    0    0  0.59740124517E+02 -0.48584823962E+02  0.11009393215E+03  0.13435044285E+03  0.00000000000E+00 0.  1.
</event>
<event>
12   0  0.1523332E-01  0.2346749E+03  0.7957747E-01  0.1130490E+00
       21   -1    0    0  501  503  0.00000000000E+00  0.00000000000E+00  0.10273607406E+04  0.10273607406E+04  0.00000000000E+00 0. -1.
       21   -1    0    0  503  504  0.00000000000E+00  0.00000000000E+00 -0.61308986066E+02  0.61308986066E+02  0.00000000000E+00 0. -1.
        6    2    1    2  501    0  0.78230673887E+02 -0.13656082052E+03  0.28750379528E+03  0.37112092865E+03  0.17407876190E+03 0.  0.
       24    2    3    3    0    0  0.15543562793E+02  0.68454667916E-01  0.77246760032E+02  0.11261107660E+03  0.80452380994E+02 0.  0.
       -6    2    1    2    0  504 -0.78230673887E+02  0.13656082052E+03  0.67854795926E+03  0.71754879802E+03  0.17227898446E+03 0.  0.
      -24    2    5    5    0    0 -0.83808544248E+02  0.20047846559E+02  0.34373568139E+03  0.36296772527E+03  0.78521097088E+02 0.  0.
        5    1    3    3  501    0  0.62687111094E+02 -0.13662927519E+03  0.21025703525E+03  0.25850985205E+03  0.47000000000E+01 0. -1.
        4    1    4    4  502    0 -0.30037665879E+02  0.15520116683E+02  0.31617962175E+02  0.46290721807E+02  0.00000000000E+00 0. -1.
       -3    1    4    4    0  502  0.45581228672E+02 -0.15451662015E+02  0.45628797858E+02  0.66320354795E+02  0.00000000000E+00 0.  1.
       -5    1    5    5    0  504  0.55778703614E+01  0.11651297396E+03  0.33481227787E+03  0.35458107275E+03  0.47000000000E+01 0.  1.
       11    1    6    6    0    0 -0.71779548661E+02 -0.26729976746E+01  0.32005012510E+03  0.32801148013E+03  0.00000000000E+00 0. -1.
      -12    1    6    6    0    0 -0.12028995587E+02  0.22720844233E+02  0.23685556293E+02  0.34956245142E+02  0.00000000000E+00 0.  1.
</event>
<event>
12   0  0.1523332E-01  0.2066084E+03  0.7957747E-01  0.1150708E+00
       21   -1    0    0  504  503  0.00000000000E+00  0.00000000000E+00  0.11701984043E+03  0.11701984043E+03  0.00000000000E+00 0.  1.
       21   -1    0    0  501  504  0.00000000000E+00  0.00000000000E+00 -0.38696115982E+03  0.38696115982E+03  0.00000000000E+00 0.  1.
        6    2    1    2  501    0 -0.10698581999E+03 -0.35548213168E+02 -0.20256020001E+03  0.28934004682E+03  0.17313979014E+03 0.  0.
       24    2    3    3    0    0 -0.79835447896E+02 -0.84334470208E+02 -0.10016402739E+03  0.17261683685E+03  0.79232180168E+02 0.  0.
       -6    2    1    2    0  503  0.10698581999E+03  0.35548213168E+02 -0.67381119381E+02  0.21464095343E+03  0.16976714200E+03 0.  0.
      -24    2    5    5    0    0  0.45824653027E+02  0.67640671707E+01  0.28665661842E+02  0.97098239540E+02  0.80378458080E+02 0.  0.
        5    1    3    3  501    0 -0.27150372093E+02  0.48786257041E+02 -0.10239617262E+03  0.11672320998E+03  0.47000000000E+01 0. -1.
      -11    1    4    4    0    0 -0.36632663791E+02 -0.42681842915E+02 -0.97481807522E+02  0.11254507794E+03  0.00000000000E+00 0.  1.
       12    1    4    4    0    0 -0.43202784105E+02 -0.41652627293E+02 -0.26822198709E+01  0.60071758908E+02  0.00000000000E+00 0. -1.
       -5    1    5    5    0  503  0.61161166962E+02  0.28784145997E+02 -0.96046781223E+02  0.11754271389E+03  0.47000000000E+01 0.  1.
        3    1    6    6  502    0  0.56466835481E+02 -0.22105951404E+02  0.11033928359E+02  0.61635413293E+02  0.00000000000E+00 0. -1.
       -4    1    6    6    0  502 -0.10642182454E+02  0.28870018575E+02  0.17631733483E+02  0.35462826248E+02  0.00000000000E+00 0.  1.
</event>
<event>
12   0  0.1523332E-01  0.2299393E+03  0.7957747E-01  0.1133678E+00
       21   -1    0    0  501  503  0.00000000000E+00  0.00000000000E+00  0.13729765558E+03  0.13729765558E+03  0.00000000000E+00 0. -1.
       21   -1    0    0  503  504  0.00000000000E+00  0.00000000000E+00 -0.40701470605E+03  0.40701470605E+03  0.00000000000E+00 0. -1.
        6    2    1    2  501    0 -0.82603962650E+02  0.12661073638E+03 -0.19839941457E+03  0.30370117773E+03  0.17325814393E+03 0.  0.
       24    2    3    3    0    0 -0.22009256886E+01  0.10211172670E+03 -0.60713931590E+02  0.14231892328E+03  0.78338021614E+02 0.  0.
       -6    2    1    2    0  504  0.82603962650E+02 -0.12661073638E+03 -0.71317635889E+02  0.24061118390E+03  0.17307178689E+03 0.  0.
      -24    2    5    5    0    0  0.73724877975E+02 -0.21064542179E+02 -0.76408163483E+02  0.13446580846E+03  0.79773263877E+02 0.  0.
        5    1    3    3  501    0 -0.80403036962E+02  0.24499009683E+02 -0.13768548298E+03  0.16138225445E+03  0.47000000000E+01 0. -1.
      -11    1    4    4    0    0  0.19552154193E+02  0.89887231758E+02 -0.70104841736E+02  0.11565764134E+03  0.00000000000E+00 0.  1.
       12    1    4    4    0    0 -0.21753079882E+02  0.12224494941E+02  0.93909101458E+01  0.26661281932E+02  0.00000000000E+00 0. -1.
       -5    1    5    5    0  504  0.88790846757E+01 -0.10554619420E+03  0.50905275942E+01  0.10614537544E+03  0.47000000000E+01 0.  1.
        3    1    6    6  502    0  0.49610113471E+02 -0.16729989151E+02  0.19247922123E+01  0.52390464024E+02  0.00000000000E+00 0. -1.
       -4    1    6    6    0  502  0.24114764503E+02 -0.43345530285E+01 -0.78332955695E+02  0.82075344440E+02  0.00000000000E+00 0.  1.
</event>
<event>
12   0  0.1523332E-01  0.1761107E+03  0.7957747E-01  0.1177105E+00
       21   -1    0    0  501  503  0.00000000000E+00  0.00000000000E+00  0.60450957175E+03  0.60450957175E+03  0.00000000000E+00 0.  1.
       21   -1    0    0  503  504  0.00000000000E+00  0.00000000000E+00 -0.56608057111E+02  0.56608057111E+02  0.00000000000E+00 0.  1.
        6    2    1    2  501    0  0.14107909808E+02  0.27797277967E+02  0.37763573138E+03  0.41668179607E+03  0.17332989292E+03 0.  0.
       24    2    3    3    0    0  0.57206200610E+02  0.57786122650E+02  0.31381535084E+03  0.33390544409E+03  0.80006161064E+02 0.  0.
       -6    2    1    2    0  504 -0.14107909808E+02 -0.27797277967E+02  0.17026578326E+03  0.24443583279E+03  0.17258828935E+03 0.  0.
      -24    2    5    5    0    0  0.54344155995E+02 -0.19492574952E+02  0.65029271022E+02  0.11853322395E+03  0.80548564990E+02 0.  0.
        5    1    3    3  501    0 -0.43098290802E+02 -0.29988844682E+02  0.63820380541E+02  0.82776351984E+02  0.47000000000E+01 0. -1.
      -11    1    4    4    0    0  0.33352814801E+02 -0.14574519608E+02  0.12804553383E+03  0.13311831434E+03  0.00000000000E+00 0.  1.
       12    1    4    4    0    0  0.23853385809E+02  0.72360642258E+02  0.18576981701E+03  0.20078712975E+03  0.00000000000E+00 0. -1.
       -5    1    5    5    0  504 -0.68452065803E+02 -0.83047030151E+01  0.10523651223E+03  0.12590260884E+03  0.47000000000E+01 0.  1.
        1    1    6    6  502    0  0.28717525024E+02  0.23576513295E+02  0.56609969168E+02  0.67714376848E+02  0.00000000000E+00 0. -1.
       -2    1    6    6    0  502  0.25626630971E+02 -0.43069088247E+02  0.84193018541E+01  0.50818847105E+02  0.00000000000E+00 0.  1.
</event>
<event>
12   0  0.1523332E-01  0.1813731E+03  0.7957747E-01  0.1172148E+00
       21   -1    0    0  501  503  0.00000000000E+00  0.00000000000E+00  0.30743206808E+03  0.30743206808E+03  0.00000000000E+00 0.  1.
       21   -1    0    0  503  504  0.00000000000E+00  0.00000000000E+00 -0.10813734905E+03  0.10813734905E+03  0.00000000000E+00 0.  1.
        6    2    1    2  501    0 -0.34041244452E+02 -0.24753126997E+02  0.64841277730E+02  0.18979536112E+03  0.17333887096E+03 0.  0.
       24    2    3    3    0    0 -0.13825234848E+02 -0.57484173677E+02 -0.14080994914E+02  0.10187025902E+03  0.81753947383E+02 0.  0.
       -6    2    1    2    0  504  0.34041244452E+02  0.24753126997E+02  0.13445344129E+03  0.22577405600E+03  0.17642186052E+03 0.  0.
      -24    2    5    5    0    0 -0.67820266246E+01 -0.51356401775E+02  0.80088468085E+02  0.12361320174E+03  0.78629415850E+02 0.  0.
        5    1    3    3  501    0 -0.20216009604E+02  0.32731046680E+02  0.78922272644E+02  0.87925102106E+02  0.47000000000E+01 0. -1.
      -11    1    4    4    0    0 -0.46091108121E+02 -0.46764189182E+02 -0.16757556878E+02  0.67765000924E+02  0.00000000000E+00 0.  1.
       12    1    4    4    0    0  0.32265873274E+02 -0.10719984495E+02  0.26765619648E+01  0.34105258094E+02  0.00000000000E+00 0. -1.
       -5    1    5    5    0  504  0.40823271076E+02  0.76109528772E+02  0.54364973207E+02  0.10216085426E+03  0.47000000000E+01 0.  1.
        3    1    6    6  502    0 -0.34247149722E+02 -0.34176773590E+02  0.77174434344E+02  0.91086840067E+02  0.00000000000E+00 0. -1.
       -4    1    6    6    0  502  0.27465123097E+02 -0.17179628185E+02  0.29140337410E+01  0.32526361677E+02  0.00000000000E+00 0.  1.
</event>
<event>
12   0  0.1523332E-01  0.1835225E+03  0.7957747E-01  0.1170176E+00
       -2   -1    0    0    0  501  0.00000000000E+00  0.00000000000E+00  0.87125415682E+02  0.87125415682E+02  0.00000000000E+00 0.  1.
        2   -1    0    0  502    0  0.00000000000E+00  0.00000000000E+00 -0.41998904097E+03  0.41998904097E+03  0.00000000000E+00 0. -1.
        6    2    1    2  502    0 -0.36567292559E+02 -0.46885072511E+02 -0.94116615917E+02  0.20538945395E+03  0.17260218276E+03 0.  0.
       24    2    3    3    0    0  0.33950823958E+02 -0.91371750130E+01 -0.91749150154E+01  0.88620917633E+02  0.80829088588E+02 0.  0.
       -6    2    1    2    0  501  0.36567292559E+02  0.46885072511E+02 -0.23874700937E+03  0.30172500269E+03  0.17464955156E+03 0.  0.
      -24    2    5    5    0    0  0.10093139916E+02 -0.11333351623E+02 -0.42200516791E+02  0.94981491523E+02  0.83727437452E+02 0.  0.
        5    1    3    3  502    0 -0.70518116517E+02 -0.37747897498E+02 -0.84941700901E+02  0.11676853632E+03  0.47000000000E+01 0. -1.
        2    1    4    4  503    0 -0.98121845725E+01 -0.35249745244E+02  0.12194194011E+01  0.36610251154E+02  0.00000000000E+00 0. -1.
       -1    1    4    4    0  503  0.43763008531E+02  0.26112570231E+02 -0.10394334417E+02  0.52010666480E+02  0.00000000000E+00 0.  1.
       -5    1    5    5    0  501  0.26474152643E+02  0.58218424134E+02 -0.19654649258E+03  0.20674351117E+03  0.47000000000E+01 0.  1.
       11    1    6    6    0    0  0.12701973201E+02 -0.16167002184E+02 -0.66739846875E+02  0.69834942856E+02  0.00000000000E+00 0. -1.
      -12    1    6    6    0    0 -0.26088332858E+01  0.48336505611E+01  0.24539330085E+02  0.25146548667E+02  0.00000000000E+00 0.  1.
</event>
<event>
12   0  0.1523332E-01  0.1899101E+03  0.7957747E-01  0.1164487E+00
       21   -1    0    0  504  503  0.00000000000E+00  0.00000000000E+00  0.26645820692E+03  0.26645820692E+03  0.00000000000E+00 0.  1.
       21   -1    0    0  501  504  0.00000000000E+00  0.00000000000E+00 -0.31239877871E+03  0.31239877871E+03  0.00000000000E+00 0.  1.
        6    2    1    2  501    0 -0.47868351917E+02 -0.41508070502E+02 -0.24323578891E+03  0.30501170565E+03  0.17278365821E+03 0.  0.
       24    2    3    3    0    0 -0.78451163995E+02 -0.16677753883E+02 -0.85318214346E+02  0.14218694287E+03  0.80654797849E+02 0.  0.
       -6    2    1    2    0  503  0.47868351917E+02  0.41508070502E+02  0.19729521713E+03  0.27384527998E+03  0.17902942672E+03 0.  0.
      -24    2    5    5    0    0 -0.24589441596E+02  0.70916616319E+02  0.10645146801E+03  0.15388832452E+03  0.81950559944E+02 0.  0.
        5    1    3    3  501    0  0.30582812078E+02 -0.24830316618E+02 -0.15791757457E+03  0.16282476278E+03  0.47000000000E+01 0. -1.
        4    1    4    4  502    0 -0.38126942761E+02 -0.44632554158E+02 -0.23419184676E+02  0.63199579634E+02  0.00000000000E+00 0. -1.
       -3    1    4    4    0  502 -0.40324221233E+02  0.27954800275E+02 -0.61899029670E+02  0.78987363233E+02  0.00000000000E+00 0.  1.
       -5    1    5    5    0  503  0.72457793513E+02 -0.29408545818E+02  0.90843749120E+02  0.11995695546E+03  0.47000000000E+01 0.  1.
       13    1    6    6    0    0 -0.31257182299E+02  0.13123330053E+02  0.15511200511E+01  0.33935810147E+02  0.00000000000E+00 0. -1.
      -14    1    6    6    0    0  0.66677407030E+01  0.57793286267E+02  0.10490034796E+03  0.11995251437E+03  0.00000000000E+00 0.  1.
</event>
<event>
12   0  0.1523332E-01  0.1980032E+03  0.7957747E-01  0.1157623E+00
       21   -1    0    0  501  503  0.00000000000E+00  0.00000000000E+00  0.63418863616E+03  0.63418863616E+03  0.00000000000E+00 0. -1.
       21   -1    0    0  503  504  0.00000000000E+00  0.00000000000E+00 -0.13064436240E+03  0.13064436240E+03  0.00000000000E+00 0. -1.
        6    2    1    2  501    0  0.45709411808E+02  0.77498226598E+02  0.53066015117E+03  0.56498172326E+03  0.17178133228E+03 0.  0.
       24    2    3    3    0    0  0.54494703943E+02  0.11745843299E+03  0.41932646297E+03  0.44627502765E+03  0.80997293284E+02 0.  0.
       -6    2    1    2    0  504 -0.45709411808E+02 -0.77498226598E+02 -0.27115877422E+02  0.19985127530E+03  0.17638008951E+03 0.  0.
      -24    2    5    5    0    0 -0.18848914715E+02 -0.48571046579E+01  0.45116054285E+02  0.93842969686E+02  0.79951057238E+02 0.  0.
        5    1    3    3  501    0 -0.87852921347E+01 -0.39960206396E+02  0.11133368821E+03  0.11870669561E+03  0.47000000000E+01 0. -1.
      -11    1    4    4    0    0  0.57275946429E+01 -0.10933656127E+02  0.16012189859E+02  0.20217329220E+02  0.00000000000E+00 0.  1.
       12    1    4    4    0    0  0.48767109300E+02  0.12839208912E+03  0.40331427311E+03  0.42605769843E+03  0.00000000000E+00 0. -1.
       -5    1    5    5    0  504 -0.26860497093E+02 -0.72641121940E+02 -0.72231931708E+02  0.10600830561E+03  0.47000000000E+01 0.  1.
        1    1    6    6  502    0 -0.41371876953E+02  0.36710785906E+01  0.54041675577E+02  0.68158724458E+02  0.00000000000E+00 0. -1.
       -2    1    6    6    0  502  0.22522962238E+02 -0.85281832485E+01 -0.89256212910E+01  0.25684245228E+02  0.00000000000E+00 0.  1.
</event>
<event>
12   0  0.1523332E-01  0.2953839E+03  0.7957747E-01  0.1095715E+00
       21   -1    0    0  501  503  0.00000000000E+00  0.00000000000E+00  0.25624022995E+03  0.25624022995E+03  0.00000000000E+00 0.  1.
       21   -1    0    0  503  504  0.00000000000E+00  0.00000000000E+00 -0.34837702116E+03  0.34837702116E+03  0.00000000000E+00 0. -1.
        6    2    1    2  501    0  0.16048214408E+03  0.17524507344E+03  0.45465231784E+01  0.29541893550E+03  0.17546031531E+03 0.  0.
       24    2    3    3    0    0  0.43007762111E+02  0.68597440464E+02  0.58824280544E+02  0.12766282389E+03  0.79260483111E+02 0.  0.
       -6    2    1    2    0  504 -0.16048214408E+03 -0.17524507344E+03 -0.96683314386E+02  0.30919831561E+03  0.17259948078E+03 0.  0.
      -24    2    5    5    0    0 -0.64800779729E+02 -0.16591231425E+03 -0.47044866466E+02  0.20090201194E+03  0.80139639791E+02 0.  0.
        5    1    3    3  501    0  0.11747438197E+03  0.10664763297E+03 -0.54277757365E+02  0.16775611161E+03  0.47000000000E+01 0. -1.
      -11    1    4    4    0    0  0.63875918589E+02  0.41935596121E+02  0.26565344691E+02  0.80897742466E+02  0.00000000000E+00 0.  1.
       12    1    4    4    0    0 -0.20868156478E+02  0.26661844343E+02  0.32258935853E+02  0.46765081427E+02  0.00000000000E+00 0. -1.
       -5    1    5    5    0  504 -0.95681364351E+02 -0.93327591864E+01 -0.49638447921E+02  0.10829630368E+03  0.47000000000E+01 0.  1.
        1    1    6    6  502    0 -0.30711884670E+02 -0.11721442528E+03 -0.66671301091E+02  0.13830221886E+03  0.00000000000E+00 0. -1.
       -2    1    6    6    0  502 -0.34088895058E+02 -0.48697888972E+02  0.19626434625E+02  0.62599793073E+02  0.00000000000E+00 0.  1.
</event>
<event>
12   0  0.1523332E-01  0.1910118E+03  0.7957747E-01  0.1163531E+00
       21   -1    0    0  504  503  0.00000000000E+00  0.00000000000E+00  0.13705032665E+03  0.13705032665E+03  0.00000000000E+00 0. -1.
       21   -1    0    0  501  504  0.00000000000E+00  0.00000000000E+00 -0.28140578298E+03  0.28140578298E+03  0.00000000000E+00 0.  1.
        6    2    1    2  501    0 -0.59638693424E+02 -0.57943192994E+02 -0.12152847121E+03  0.22608519837E+03  0.17155512303E+03 0.  0.
       24    2    3    3    0    0  0.13962676869E+02 -0.78871387810E+02 -0.73679880104E+02  0.13571524363E+03  0.81081751719E+02 0.  0.
       -6    2    1    2    0  503  0.59638693424E+02  0.57943192994E+02 -0.22826985122E+02  0.19237091127E+03  0.17196310327E+03 0.  0.
      -24    2    5    5    0    0 -0.23921321627E+02  0.25986655190E+01  0.15116298799E+02  0.85099873092E+02  0.80215355263E+02 0.  0.
        5    1    3    3  501    0 -0.73601370293E+02  0.20928194816E+02 -0.47848591109E+02  0.90369954732E+02  0.47000000000E+01 0. -1.
      -11    1    4    4    0    0 -0.16297592131E+02 -0.17791482667E+02 -0.62036324045E+02  0.66563156970E+02  0.00000000000E+00 0.  1.
       12    1    4    4    0    0  0.30260269000E+02 -0.61079905143E+02 -0.11643556059E+02  0.69152086663E+02  0.00000000000E+00 0. -1.
       -5    1    5    5    0  503  0.83560015051E+02  0.55344527475E+02 -0.37943283921E+02  0.10727103818E+03  0.47000000000E+01 0.  1.
        1    1    6    6  502    0 -0.15701530860E+02 -0.28966077198E+02 -0.18890445442E+02  0.37979213112E+02  0.00000000000E+00 0. -1.
       -2    1    6    6    0  502 -0.82197907677E+01  0.31564742717E+02  0.34006744242E+02  0.47120659980E+02  0.00000000000E+00 0.  1.
</event>
<event>
12   0  0.1523332E-01  0.1977107E+03  0.7957747E-01  0.1157865E+00
       21   -1    0    0  504  503  0.00000000000E+00  0.00000000000E+00  0.24450766026E+03  0.24450766026E+03  0.00000000000E+00 0. -1.
       21   -1    0    0  501  504  0.00000000000E+00  0.00000000000E+00 -0.16070506727E+03  0.16070506727E+03  0.00000000000E+00 0.  1.
        6    2    1    2  501    0 -0.41552089472E+02  0.84614213755E+02  0.22204500650E+02  0.19895364753E+03  0.17379117558E+03 0.  0.
       24    2    3    3    0    0 -0.64720631802E+02  0.46361868836E+02 -0.42037869276E+02  0.12053684232E+03  0.80148392629E+02 0.  0.
       -6    2    1    2    0  503  0.41552089472E+02 -0.84614213755E+02  0.61598092338E+02  0.20625907999E+03  0.17280723883E+03 0.  0.
      -24    2    5    5    0    0  0.45718382830E+02  0.17899626393E+02  0.22389387247E+02  0.96323380708E+02  0.79789359291E+02 0.  0.
        5    1    3    3  501    0  0.23168542330E+02  0.38252344919E+02  0.64242369926E+02  0.78416805209E+02  0.47000000000E+01 0. -1.
      -11    1    4    4    0    0 -0.61378633732E+02  0.27084007488E+02  0.72773964390E+01  0.67482150524E+02  0.00000000000E+00 0.  1.
       12    1    4    4    0    0 -0.33419980700E+01  0.19277861348E+02 -0.49315265715E+02  0.53054691799E+02  0.00000000000E+00 0. -1.
       -5    1    5    5    0  503 -0.41662933584E+01 -0.10251384015E+03  0.39208705091E+02  0.10993569928E+03  0.47000000000E+01 0.  1.
        1    1    6    6  502    0  0.49792924045E+02 -0.18671312391E+02  0.26286082050E+02  0.59320412177E+02  0.00000000000E+00 0. -1.
       -2    1    6    6    0  502 -0.40745412143E+01  0.36570938784E+02 -0.38966948032E+01  0.37002968531E+02  0.00000000000E+00 0.  1.
</event>
<event>
12   0  0.1523332E-01  0.1755355E+03  0.7957747E-01  0.1177658E+00
       21   -1    0    0  501  503  0.00000000000E+00  0.00000000000E+00  0.18357754857E+03  0.18357754857E+03  0.00000000000E+00 0. -1.
       21   -1    0    0  503  504  0.00000000000E+00  0.00000000000E+00 -0.29186871480E+03  0.29186871480E+03  0.00000000000E+00 0. -1.
        6    2    1    2  501    0 -0.23854111184E+02 -0.57411201464E+02  0.10407264319E+03  0.19992656407E+03  0.15897940522E+03 0.  0.
       24    2    3    3    0    0  0.31363985169E+02  0.43893580520E+01  0.40999993461E+02  0.95674003115E+02  0.80433509053E+02 0.  0.
       -6    2    1    2    0  504  0.23854111184E+02  0.57411201464E+02 -0.21236380942E+03  0.27551969930E+03  0.16415740154E+03 0.  0.
      -24    2    5    5    0    0 -0.14309180970E+02  0.17382471630E+02 -0.20437813095E+03  0.21944299166E+03  0.76667484595E+02 0.  0.
        5    1    3    3  501    0 -0.55218096353E+02 -0.61800559516E+02  0.63072649729E+02  0.10425256095E+03  0.47000000000E+01 0. -1.
      -13    1    4    4    0    0 -0.13677935090E+02  0.17932876999E+02  0.43044762920E+02  0.48595530665E+02  0.00000000000E+00 0.  1.
       14    1    4    4    0    0  0.45041920259E+02 -0.13543518947E+02 -0.20447694591E+01  0.47078472450E+02  0.00000000000E+00 0. -1.
       -5    1    5    5    0  504  0.38163292154E+02  0.40028729834E+02 -0.79856784628E+01  0.56076707648E+02  0.47000000000E+01 0.  1.
        1    1    6    6  502    0 -0.31379448974E+02 -0.11826612861E+01 -0.30604104416E+02  0.43848371836E+02  0.00000000000E+00 0. -1.
       -2    1    6    6    0  502  0.17070268003E+02  0.18565132916E+02 -0.17377402654E+03  0.17559461982E+03  0.00000000000E+00 0.  1.
</event>
<event>
12   0  0.1523332E-01  0.1974531E+03  0.7957747E-01  0.1158078E+00
       -2   -1    0    0    0  501  0.00000000000E+00  0.00000000000E+00  0.23955752573E+03  0.23955752573E+03  0.00000000000E+00 0. -1.
        2   -1    0    0  502    0  0.00000000000E+00  0.00000000000E+00 -0.45597889266E+03  0.45597889266E+03  0.00000000000E+00 0.  1.
        6    2    1    2  502    0 -0.20245805843E+02 -0.10620740600E+03  0.16938662879E+03  0.26478505076E+03  0.17242211967E+03 0.  0.
       24    2    3    3    0    0 -0.64227953958E+01 -0.13814440164E+02  0.11719823416E+02  0.81458982593E+02  0.79158831007E+02 0.  0.
       -6    2    1    2    0  501  0.20245805843E+02  0.10620740600E+03 -0.38580799572E+03  0.43075136763E+03  0.15814242128E+03 0.  0.
      -24    2    5    5    0    0  0.30611085353E+02  0.51725363949E+02 -0.11272063857E+03  0.15204986681E+03  0.82466161631E+02 0.  0.
        5    1    3    3  502    0 -0.13823010447E+02 -0.92392965837E+02  0.15766680537E+03  0.18332606817E+03  0.47000000000E+01 0. -1.
      -11    1    4    4    0    0  0.12086234401E+02 -0.23358078825E+02 -0.26876228411E+02  0.37603305200E+02  0.00000000000E+00 0.  1.
       12    1    4    4    0    0 -0.18509029796E+02  0.95436386612E+01  0.38596051827E+02  0.43855677392E+02  0.00000000000E+00 0. -1.
       -5    1    5    5    0  501 -0.10365279510E+02  0.54482042052E+02 -0.27308735715E+03  0.27870150082E+03  0.47000000000E+01 0.  1.
        1    1    6    6  503    0  0.14929402669E+02  0.72688776468E+02 -0.94501808356E+02  0.12015463816E+03  0.00000000000E+00 0. -1.
       -2    1    6    6    0  503  0.15681682684E+02 -0.20963412518E+02 -0.18218830219E+02  0.31895228652E+02  0.00000000000E+00 0.  1.
</event>
<event>
12   0  0.1523332E-01  0.2822126E+03  0.7957747E-01  0.1102439E+00
       -1   -1    0    0    0  501  0.00000000000E+00  0.00000000000E+00  0.25661899492E+03  0.25661899492E+03  0.00000000000E+00 0. -1.
        1   -1    0    0  502    0  0.00000000000E+00  0.00000000000E+00 -0.43361760451E+03  0.43361760451E+03  0.00000000000E+00 0.  1.
        6    2    1    2  502    0 -0.79267356559E+02  0.20859234814E+03  0.95512679930E+02  0.29789696612E+03  0.17270161805E+03 0.  0.
       24    2    3    3    0    0  0.24652035892E+02  0.97301494195E+02  0.19261563617E+02  0.12754081848E+03  0.76291211155E+02 0.  0.
       -6    2    1    2    0  501  0.79267356559E+02 -0.20859234814E+03 -0.27251128952E+03  0.39233963331E+03  0.17284068799E+03 0.  0.
      -24    2    5    5    0    0  0.63688367588E+01 -0.40552051166E+02 -0.13811949400E+03  0.16510631643E+03  0.80610608263E+02 0.  0.
        5    1    3    3  502    0 -0.10391939245E+03  0.11129085395E+03  0.76251116313E+02  0.17035614764E+03  0.47000000000E+01 0. -1.
      -13    1    4    4    0    0 -0.33254214987E+01  0.31627574175E+01 -0.20929621506E+02  0.21426864423E+02  0.00000000000E+00 0.  1.
       14    1    4    4    0    0  0.27977457391E+02  0.94138736777E+02  0.40191185123E+02  0.10611395406E+03  0.00000000000E+00 0. -1.
       -5    1    5    5    0  501  0.72898519800E+02 -0.16804029698E+03 -0.13439179552E+03  0.22723331688E+03  0.47000000000E+01 0.  1.
        1    1    6    6  503    0  0.21763719516E+02 -0.11046710319E+01 -0.11462928243E+03  0.11668227019E+03  0.00000000000E+00 0. -1.
       -2    1    6    6    0  503 -0.15394882757E+02 -0.39447380134E+02 -0.23490211574E+02  0.48424046240E+02  0.00000000000E+00 0.  1.
</event>
<event>
12   0  0.1523332E-01  0.1906816E+03  0.7957747E-01  0.1163817E+00
       -1   -1    0    0    0  501  0.00000000000E+00  0.00000000000E+00  0.71808351584E+02  0.71808351584E+02  0.00000000000E+00 0. -1.
        1   -1    0    0  502    0  0.00000000000E+00  0.00000000000E+00 -0.56609152983E+03  0.56609152983E+03  0.00000000000E+00 0.  1.
        6    2    1    2  502    0  0.54095907663E+02  0.60876382980E+02 -0.14292138300E+03  0.23788356733E+03  0.17184227844E+03 0.  0.
       24    2    3    3    0    0  0.52643380012E+02  0.26830408800E+02 -0.16805259210E+03  0.19528185533E+03  0.80013330245E+02 0.  0.
       -6    2    1    2    0  501 -0.54095907663E+02 -0.60876382980E+02 -0.35136179525E+03  0.40001631408E+03  0.17299028625E+03 0.  0.
      -24    2    5    5    0    0 -0.95897852094E+02 -0.74166555200E+02 -0.29173716725E+03  0.32584612128E+03  0.79800025384E+02 0.  0.
        5    1    3    3  502    0  0.14525276507E+01  0.34045974180E+02  0.25131209101E+02  0.42601712000E+02  0.47000000000E+01 0. -1.
        2    1    4    4  503    0  0.11548352943E+02 -0.28371301726E+02 -0.50216500984E+02  0.58821698279E+02  0.00000000000E+00 0. -1.
       -1    1    4    4    0  503  0.41095027070E+02  0.55201710526E+02 -0.11783609111E+03  0.13646015706E+03  0.00000000000E+00 0.  1.
       -5    1    5    5    0  501  0.41801944431E+02  0.13290172220E+02 -0.59624628001E+02  0.74170192801E+02  0.47000000000E+01 0.  1.
       13    1    6    6    0    0 -0.63233184912E+02 -0.66380964189E+02 -0.12084005034E+03  0.15168119807E+03  0.00000000000E+00 0. -1.
      -14    1    6    6    0    0 -0.32664667182E+02 -0.77855910104E+01 -0.17089711691E+03  0.17416492321E+03  0.00000000000E+00 0.  1.
</event>
<event>
12   0  0.1523332E-01  0.1963726E+03  0.7957747E-01  0.1158977E+00
       21   -1    0    0  504  503  0.00000000000E+00  0.00000000000E+00  0.44473891410E+02  0.44473891410E+02  0.00000000000E+00 0.  1.
       21   -1    0    0  501  504  0.00000000000E+00  0.00000000000E+00 -0.87052386142E+03  0.87052386142E+03  0.00000000000E+00 0.  1.
        6    2    1    2  501    0 -0.16982061311E+02 -0.91419407851E+02 -0.45366966979E+03  0.49401165446E+03  0.17200420612E+03 0.  0.
       24    2    3    3    0    0 -0.45245860195E+02 -0.11917912329E+03 -0.30426394963E+03  0.33937141603E+03  0.79658996211E+02 0.  0.
       -6    2    1    2    0  503  0.16982061311E+02  0.91419407851E+02 -0.37238030022E+03  0.42098609837E+03  0.17296331544E+03 0.  0.
      -24    2    5    5    0    0 -0.36033266932E+02 -0.20658924491E+01 -0.14803741176E+03  0.17218507746E+03  0.80187039987E+02 0.  0.
        5    1    3    3  501    0  0.28263798883E+02  0.27759715438E+02 -0.14940572016E+03  0.15464023844E+03  0.47000000000E+01 0. -1.
      -13    1    4    4    0    0  0.25162893315E+01 -0.20977590360E+02 -0.63305441415E+01  0.22055992348E+02  0.00000000000E+00 0.  1.
       14    1    4    4    0    0 -0.47762149526E+02 -0.98201532928E+02 -0.29793340549E+03  0.31731542368E+03  0.00000000000E+00 0. -1.
       -5    1    5    5    0  503  0.53015328244E+02  0.93485300300E+02 -0.22434288847E+03  0.24880102091E+03  0.47000000000E+01 0.  1.
        1    1    6    6  502    0 -0.96492326757E+01  0.38357946865E+02 -0.70975417026E+02  0.81252382125E+02  0.00000000000E+00 0. -1.
       -2    1    6    6    0  502 -0.26384034257E+02 -0.40423839314E+02 -0.77061994730E+02  0.90932695332E+02  0.00000000000E+00 0.  1.
</event>
<event>
12   0  0.1523332E-01  0.1728816E+03  0.7957747E-01  0.1180242E+00
       -1   -1    0    0    0  501  0.00000000000E+00  0.00000000000E+00  0.64852810165E+02  0.64852810165E+02  0.00000000000E+00 0. -1.
        1   -1    0    0  502    0  0.00000000000E+00  0.00000000000E+00 -0.46360132117E+03  0.46360132117E+03  0.00000000000E+00 0.  1.
        6    2    1    2  502    0 -0.38246448067E+01  0.19436572279E+02 -0.18075623372E+03  0.25108632676E+03  0.17314479261E+03 0.  0.
       24    2    3    3    0    0  0.57140553562E+01 -0.53352502068E+02 -0.12928147342E+03  0.16130338243E+03  0.80161972955E+02 0.  0.
       -6    2    1    2    0  501  0.38246448067E+01 -0.19436572279E+02 -0.21799227729E+03  0.27736780458E+03  0.17035215821E+03 0.  0.
      -24    2    5    5    0    0  0.26936747433E+01  0.32323910790E+02 -0.49447298227E+02  0.10098774145E+03  0.81862064039E+02 0.  0.
        5    1    3    3  502    0 -0.95387001630E+01  0.72789074347E+02 -0.51474760290E+02  0.89782944327E+02  0.47000000000E+01 0. -1.
      -11    1    4    4    0    0  0.38823001155E+02 -0.35686925060E+02 -0.10227359084E+03  0.11506810775E+03  0.00000000000E+00 0.  1.
       12    1    4    4    0    0 -0.33108945799E+02 -0.17665577007E+02 -0.27007882587E+02  0.46235274680E+02  0.00000000000E+00 0. -1.
       -5    1    5    5    0  501  0.11309700634E+01 -0.51760483069E+02 -0.16854497907E+03  0.17638006313E+03  0.47000000000E+01 0.  1.
        1    1    6    6  503    0  0.36014667294E+02  0.28656282721E+02 -0.49328773439E+02  0.67465299886E+02  0.00000000000E+00 0. -1.
       -2    1    6    6    0  503 -0.33320992551E+02  0.36676280689E+01 -0.11852478822E+00  0.33522441563E+02  0.00000000000E+00 0.  1.
</event>
<event>
12   0  0.1523332E-01  0.2272219E+03  0.7957747E-01  0.1135545E+00
       21   -1    0    0  501  503  0.00000000000E+00  0.00000000000E+00  0.27697567739E+03  0.27697567739E+03  0.00000000000E+00 0. -1.
       21   -1    0    0  503  504  0.00000000000E+00  0.00000000000E+00 -0.18746447998E+03  0.18746447998E+03  0.00000000000E+00 0.  1.
        6    2    1    2  501    0  0.85928228835E+02 -0.11444772870E+03  0.74913550345E+02  0.23674983598E+03  0.17307946642E+03 0.  0.
       24    2    3    3    0    0  0.79138512275E+01 -0.12096844607E+03  0.61280972156E+02  0.15714644374E+03  0.79016790912E+02 0.  0.
       -6    2    1    2    0  504 -0.85928228835E+02  0.11444772870E+03  0.14597647069E+02  0.22769032139E+03  0.17648752941E+03 0.  0.
      -24    2    5    5    0    0 -0.11596897099E+03  0.12092079048E+03  0.30552334868E+02  0.19274767151E+03  0.90263945755E+02 0.  0.
        5    1    3    3  501    0  0.78014377607E+02  0.65207173643E+01  0.13632578189E+02  0.79603392242E+02  0.47000000000E+01 0. -1.
      -11    1    4    4    0    0  0.38077944244E+02 -0.10108515065E+03  0.51789240133E+02  0.11979258288E+03  0.00000000000E+00 0.  1.
       12    1    4    4    0    0 -0.30164093017E+02 -0.19883295419E+02  0.94917320229E+01  0.37353860859E+02  0.00000000000E+00 0. -1.
       -5    1    5    5    0  504  0.30040742153E+02 -0.64730617800E+01 -0.15954687800E+02  0.34942649881E+02  0.47000000000E+01 0.  1.
        1    1    6    6  502    0 -0.22140703020E+02  0.42280282958E+02 -0.29787724658E+02  0.56259591160E+02  0.00000000000E+00 0. -1.
       -2    1    6    6    0  502 -0.93828267968E+02  0.78640507524E+02  0.60340059526E+02  0.13648808035E+03  0.00000000000E+00 0.  1.
</event>
<event>
12   0  0.1523332E-01  0.1915881E+03  0.7957747E-01  0.1163033E+00
       21   -1    0    0  501  503  0.00000000000E+00  0.00000000000E+00  0.37733192429E+03  0.37733192429E+03  0.00000000000E+00 0. -1.
       21   -1    0    0  503  504  0.00000000000E+00  0.00000000000E+00 -0.18680731459E+03  0.18680731459E+03  0.00000000000E+00 0.  1.
        6    2    1    2  501    0 -0.71230994815E+02  0.42054205834E+02  0.29073379629E+03  0.34792662862E+03  0.17229157771E+03 0.  0.
       24    2    3    3    0    0  0.20559876281E+02  0.48242981044E+02  0.18399099877E+03  0.20693024648E+03  0.78850146151E+02 0.  0.
       -6    2    1    2    0  504  0.71230994815E+02 -0.42054205834E+02 -0.10020918659E+03  0.21621261025E+03  0.17281088190E+03 0.  0.
      -24    2    5    5    0    0 -0.20061052535E+00 -0.39723677833E+01 -0.10753753717E+03  0.13479703832E+03  0.81179428971E+02 0.  0.
        5    1    3    3  501    0 -0.91790871096E+02 -0.61887752095E+01  0.10674279752E+03  0.14099638214E+03  0.47000000000E+01 0. -1.
      -11    1    4    4    0    0  0.91097819208E+01  0.40919085554E+02  0.28144826572E+02  0.50492484114E+02  0.00000000000E+00 0.  1.
       12    1    4    4    0    0  0.11450094360E+02  0.73238954896E+01  0.15584617220E+03  0.15643776237E+03  0.00000000000E+00 0. -1.
       -5    1    5    5    0  504  0.71431605341E+02 -0.38081838051E+02  0.73283505795E+01  0.81415571932E+02  0.47000000000E+01 0.  1.
        1    1    6    6  502    0 -0.36657987042E+02 -0.12150559296E+02 -0.30621091402E+02  0.49285853385E+02  0.00000000000E+00 0. -1.
       -2    1    6    6    0  502  0.36457376517E+02  0.81781915127E+01 -0.76916445771E+02  0.85511184935E+02  0.00000000000E+00 0.  1.
</event>
<event>
12   0  0.1523332E-01  0.1762905E+03  0.7957747E-01  0.1176932E+00
       -2   -1    0    0    0  501  0.00000000000E+00  0.00000000000E+00  0.69183739033E+02  0.69183739033E+02  0.00000000000E+00 0.  1.
        2   -1    0    0  502    0  0.00000000000E+00  0.00000000000E+00 -0.44932920448E+03  0.44932920448E+03  0.00000000000E+00 0. -1.
        6    2    1    2  502    0 -0.83368170576E+01 -0.24075958589E+02 -0.18954511630E+03  0.25721710485E+03  0.17200038840E+03 0.  0.
       24    2    3    3    0    0 -0.67100116652E+02 -0.29803872761E+02 -0.15405736544E+03  0.18817070855E+03  0.79270721102E+02 0.  0.
       -6    2    1    2    0  501  0.83368170576E+01  0.24075958589E+02 -0.19060034915E+03  0.26129583867E+03  0.17691203439E+03 0.  0.
      -24    2    5    5    0    0 -0.41251795939E+02 -0.34516596739E+02 -0.76498326514E+02  0.12369685740E+03  0.80967971765E+02 0.  0.
        5    1    3    3  502    0  0.58763299594E+02  0.57279141716E+01 -0.35487750860E+02  0.69046396293E+02  0.47000000000E+01 0. -1.
      -13    1    4    4    0    0  0.73719664624E+01 -0.23731657768E+02 -0.11855511173E+02  0.27533445391E+02  0.00000000000E+00 0.  1.
       14    1    4    4    0    0 -0.74472083114E+02 -0.60722149926E+01 -0.14220185427E+03  0.16063726316E+03  0.00000000000E+00 0. -1.
       -5    1    5    5    0  501  0.49588612997E+02  0.58592555328E+02 -0.11410202263E+03  0.13759898127E+03  0.47000000000E+01 0.  1.
        1    1    6    6  503    0  0.16661672509E+02 -0.32179735262E+02 -0.15086035091E+02  0.39252199264E+02  0.00000000000E+00 0. -1.
       -2    1    6    6    0  503 -0.57913468448E+02 -0.23368614773E+01 -0.61412291422E+02  0.84444658132E+02  0.00000000000E+00 0.  1.
</event>
<event>
12   0  0.1523332E-01  0.2089134E+03  0.7957747E-01  0.1148918E+00
       21   -1    0    0  504  503  0.00000000000E+00  0.00000000000E+00  0.66045588639E+02  0.66045588639E+02  0.00000000000E+00 0. -1.
       21   -1    0    0  501  504  0.00000000000E+00  0.00000000000E+00 -0.65434885065E+03  0.65434885065E+03  0.00000000000E+00 0. -1.
        6    2    1    2  501    0  0.48940010918E+02 -0.10386834853E+03 -0.27391302415E+03  0.34292119899E+03  0.17141425093E+03 0.  0.
       24    2    3    3    0    0 -0.31011622895E+02 -0.77864662913E+02 -0.11462998531E+03  0.16275008067E+03  0.79516845641E+02 0.  0.
       -6    2    1    2    0  503 -0.48940010918E+02  0.10386834853E+03 -0.31439023786E+03  0.37747324030E+03  0.17453099147E+03 0.  0.
      -24    2    5    5    0    0 -0.40506534892E+02  0.14039696703E+03 -0.21477164399E+03  0.27093020800E+03  0.76969025085E+02 0.  0.
        5    1    3    3  501    0  0.79951633813E+02 -0.26003685620E+02 -0.15928303885E+03  0.18017111833E+03  0.47000000000E+01 0. -1.
        2    1    4    4  502    0 -0.67749789494E+01 -0.81439164043E+02 -0.11122020471E+03  0.13801511409E+03  0.00000000000E+00 0. -1.
       -1    1    4    4    0  502 -0.24236643945E+02  0.35745011307E+01 -0.34097805940E+01  0.24734966581E+02  0.00000000000E+00 0.  1.
       -5    1    5    5    0  503 -0.84334760260E+01 -0.36528618498E+02 -0.99618593868E+02  0.10654303230E+03  0.47000000000E+01 0.  1.
       13    1    6    6    0    0 -0.40736261514E+02  0.67714983020E+02 -0.57667813278E+02  0.97828107494E+02  0.00000000000E+00 0. -1.
      -14    1    6    6    0    0  0.22972662238E+00  0.72681984011E+02 -0.15710383071E+03  0.17310210050E+03  0.00000000000E+00 0.  1.
</event>
<event>
12   0  0.1523332E-01  0.1834709E+03  0.7957747E-01  0.1170223E+00
       21   -1    0    0  504  503  0.00000000000E+00  0.00000000000E+00  0.21919215521E+03  0.21919215521E+03  0.00000000000E+00 0. -1.
       21   -1    0    0  501  504  0.00000000000E+00  0.00000000000E+00 -0.15369867878E+03  0.15369867878E+03  0.00000000000E+00 0. -1.
        6    2    1    2  501    0 -0.99261127040E+01  0.55646823570E+02  0.48732269704E+02  0.18983256960E+03  0.17454648001E+03 0.  0.
       24    2    3    3    0    0  0.22737405832E+02 -0.13857995745E+02 -0.21026862429E+02  0.85975687946E+02  0.78997824680E+02 0.  0.
       -6    2    1    2    0  503  0.99261127040E+01 -0.55646823570E+02  0.16761206729E+02  0.18305826438E+03  0.17330404906E+03 0.  0.
      -24    2    5    5    0    0  0.30052074837E+02  0.18152600292E+02 -0.32234775543E+02  0.92096153629E+02  0.78803405127E+02 0.  0.
        5    1    3    3  501    0 -0.32663518536E+02  0.69504819316E+02  0.69759132133E+02  0.10385688166E+03  0.47000000000E+01 0. -1.
      -11    1    4    4    0    0 -0.86737257962E+01  0.63573920645E+01  0.24694978809E+02  0.26934957424E+02  0.00000000000E+00 0.  1.
       12    1    4    4    0    0  0.31411131628E+02 -0.20215387810E+02 -0.45721841237E+02  0.59040730522E+02  0.00000000000E+00 0. -1.
       -5    1    5    5    0  503 -0.20125962133E+02 -0.73799423862E+02  0.48995982272E+02  0.90962110755E+02  0.47000000000E+01 0.  1.
        3    1    6    6  502    0 -0.22285632280E+02 -0.12561480575E+02 -0.99771046257E+01  0.27458747551E+02  0.00000000000E+00 0. -1.
       -4    1    6    6    0  502  0.52337707118E+02  0.30714080867E+02 -0.22257670917E+02  0.64637406078E+02  0.00000000000E+00 0.  1.
</event>
<event>
12   0  0.1523332E-01  0.1930093E+03  0.7957747E-01  0.1161815E+00
       21   -1    0    0  501  503  0.00000000000E+00  0.00000000000E+00  0.17561338051E+03  0.17561338051E+03  0.00000000000E+00 0. -1.
       21   -1    0    0  503  504  0.00000000000E+00  0.00000000000E+00 -0.23395132329E+03  0.23395132329E+03  0.00000000000E+00 0.  1.
        6    2    1    2  501    0  0.10794965355E+01  0.82698410617E+02  0.37157408513E+02  0.19422318468E+03  0.17176082216E+03 0.  0.
       24    2    3    3    0    0  0.31363185302E+02  0.31763452325E+02 -0.37578481083E+02  0.98729650998E+02  0.79641920179E+02 0.  0.
       -6    2    1    2    0  504 -0.10794965355E+01 -0.82698410617E+02 -0.95495351293E+02  0.21534151911E+03  0.17439155743E+03 0.  0.
      -24    2    5    5    0    0  0.64199932749E+02 -0.74743115290E+02 -0.56725579331E+02  0.13885703814E+03  0.79720267450E+02 0.  0.
        5    1    3    3  501    0 -0.30283688766E+02  0.50934958292E+02  0.74735889595E+02  0.95493533682E+02  0.47000000000E+01 0. -1.
      -13    1    4    4    0    0 -0.65947742101E+01  0.45255779262E+02 -0.33310098990E+01  0.45854904105E+02  0.00000000000E+00 0.  1.
       14    1    4    4    0    0  0.37957959512E+02 -0.13492326937E+02 -0.34247471184E+02  0.52874746893E+02  0.00000000000E+00 0. -1.
       -5    1    5    5    0  504 -0.65279429285E+02 -0.79552953268E+01 -0.38769771962E+02  0.76484480972E+02  0.47000000000E+01 0.  1.
        1    1    6    6  502    0  0.44010922518E+02  0.13027747907E+01 -0.37565125927E+02  0.57877432640E+02  0.00000000000E+00 0. -1.
       -2    1    6    6    0  502  0.20189010231E+02 -0.76045890081E+02 -0.19160453403E+02  0.80979605500E+02  0.00000000000E+00 0.  1.
</event>
<event>
12   0  0.1523332E-01  0.2454030E+03  0.7957747E-01  0.1123562E+00
        2   -1    0    0  502    0  0.00000000000E+00  0.00000000000E+00  0.15772121479E+04  0.15772121479E+04  0.00000000000E+00 0. -1.
       -2   -1    0    0    0  501  0.00000000000E+00  0.00000000000E+00 -0.40771093655E+02  0.40771093655E+02  0.00000000000E+00 0.  1.
        6    2    1    2  502    0  0.31700503320E+02  0.17171398119E+03  0.97039834176E+03  0.10008104522E+04  0.17163334862E+03 0.  0.
       24    2    3    3    0    0 -0.47710185272E+02  0.10744069888E+03  0.53146024771E+03  0.55011559682E+03  0.79733364535E+02 0.  0.
       -6    2    1    2    0  501 -0.31700503320E+02 -0.17171398119E+03  0.56604271245E+03  0.61717278928E+03  0.17322611314E+03 0.  0.
      -24    2    5    5    0    0  0.46985646741E+02 -0.10865524792E+03  0.37149172943E+03  0.39799229507E+03  0.79863308202E+02 0.  0.
        5    1    3    3  502    0  0.79410688591E+02  0.64273282311E+02  0.43893809405E+03  0.45069485541E+03  0.47000000000E+01 0. -1.
        2    1    4    4  503    0 -0.18565351821E+02  0.62906855556E+02  0.13490140373E+03  0.15000111163E+03  0.00000000000E+00 0. -1.
       -1    1    4    4    0  503 -0.29144833451E+02  0.44533843323E+02  0.39655884398E+03  0.40011448519E+03  0.00000000000E+00 0.  1.
       -5    1    5    5    0  501 -0.78686150061E+02 -0.63058733274E+02  0.19455098301E+03  0.21918049421E+03  0.47000000000E+01 0.  1.
       13    1    6    6    0    0  0.43759184144E+02 -0.11053197566E+02  0.11970829612E+03  0.12793402805E+03  0.00000000000E+00 0. -1.
      -14    1    6    6    0    0  0.32264625972E+01 -0.97602050350E+02  0.25178343331E+03  0.27005826702E+03  0.00000000000E+00 0.  1.
</event>
<event>
12   0  0.1523332E-01  0.2675681E+03  0.7957747E-01  0.1110398E+00
        2   -1    0    0  502    0  0.00000000000E+00  0.00000000000E+00  0.80756625884E+03  0.80756625884E+03  0.00000000000E+00 0.  1.
       -2   -1    0    0    0  501  0.00000000000E+00  0.00000000000E+00 -0.97266434315E+02  0.97266434315E+02  0.00000000000E+00 0. -1.
        6    2    1    2  502    0 -0.94224130765E+01 -0.20366436910E+03  0.49049494702E+03  0.55901168062E+03  0.17418613296E+03 0.  0.
       24    2    3    3    0    0  0.62659704444E+02 -0.10995508619E+03  0.29626456579E+03  0.33158082880E+03  0.78465237804E+02 0.  0.
       -6    2    1    2    0  501  0.94224130765E+01  0.20366436910E+03  0.21980487751E+03  0.34582101253E+03  0.17236598105E+03 0.  0.
      -24    2    5    5    0    0 -0.53619034240E+02  0.17127562559E+03  0.16433237845E+03  0.25569586101E+03  0.78516889745E+02 0.  0.
        5    1    3    3  502    0 -0.72082117521E+02 -0.93709282910E+02  0.19423038122E+03  0.22743085182E+03  0.47000000000E+01 0. -1.
      -11    1    4    4    0    0  0.13905856074E+02 -0.90958438259E+02  0.22567787386E+03  0.24371563978E+03  0.00000000000E+00 0.  1.
       12    1    4    4    0    0  0.48753848371E+02 -0.18996647931E+02  0.70586691934E+02  0.87865189021E+02  0.00000000000E+00 0. -1.
       -5    1    5    5    0  501  0.63041447316E+02  0.32388743514E+02  0.55472499052E+02  0.90125151524E+02  0.47000000000E+01 0.  1.
        3    1    6    6  503    0  0.48198507059E+01  0.97775097545E+02  0.57788291940E+02  0.11367799851E+03  0.00000000000E+00 0. -1.
       -4    1    6    6    0  503 -0.58438884945E+02  0.73500528040E+02  0.10654408651E+03  0.14201786249E+03  0.00000000000E+00 0.  1.
</event>
<event>
12   0  0.1523332E-01  0.2040823E+03  0.7957747E-01  0.1152699E+00
       21   -1    0    0  504  503  0.00000000000E+00  0.00000000000E+00  0.34597057940E+02  0.34597057940E+02  0.00000000000E+00 0. -1.
       21   -1    0    0  501  504  0.00000000000E+00  0.00000000000E+00 -0.11318111292E+04  0.11318111292E+04  0.00000000000E+00 0. -1.
        6    2    1    2  501    0  0.66633026241E+02  0.47686632762E+02 -0.60019162511E+03  0.63393973241E+03  0.18691073362E+03 0.  0.
       24    2    3    3    0    0  0.11415657515E+03  0.40694077997E+02 -0.52757453392E+03  0.54674618073E+03  0.76868495894E+02 0.  0.
       -6    2    1    2    0  503 -0.66633026241E+02 -0.47686632762E+02 -0.49702244620E+03  0.53246845478E+03  0.17256120126E+03 0.  0.
      -24    2    5    5    0    0 -0.30605583456E+02  0.39762003198E+02 -0.20788903347E+03  0.22822273021E+03  0.79687174058E+02 0.  0.
        5    1    3    3  501    0 -0.47523548904E+02  0.69925547655E+01 -0.72617091185E+02  0.87193551681E+02  0.47000000000E+01 0. -1.
      -13    1    4    4    0    0  0.53855696613E+02 -0.86133871361E+01 -0.12024800663E+03  0.13203866705E+03  0.00000000000E+00 0.  1.
       14    1    4    4    0    0  0.60300878532E+02  0.49307465133E+02 -0.40732652729E+03  0.41470751368E+03  0.00000000000E+00 0. -1.
       -5    1    5    5    0  503 -0.36027442784E+02 -0.87448635960E+02 -0.28913341272E+03  0.30424572457E+03  0.47000000000E+01 0.  1.
        3    1    6    6  502    0 -0.46463470302E+02  0.70043949604E+01 -0.16699209797E+03  0.17347701982E+03  0.00000000000E+00 0. -1.
       -4    1    6    6    0  502  0.15857886845E+02  0.32757608237E+02 -0.40896935503E+02  0.54745710390E+02  0.00000000000E+00 0.  1.
</event>
<event>
12   0  0.1523332E-01  0.2113084E+03  0.7957747E-01  0.1147085E+00
       21   -1    0    0  501  503  0.00000000000E+00  0.00000000000E+00  0.89303690790E+02  0.89303690790E+02  0.00000000000E+00 0. -1.
       21   -1    0    0  503  504  0.00000000000E+00  0.00000000000E+00 -0.64597646051E+03  0.64597646051E+03  0.00000000000E+00 0. -1.
        6    2    1    2  501    0  0.11221473385E+03 -0.38379805831E+02 -0.45362786876E+03  0.50018551112E+03  0.17418997167E+03 0.  0.
       24    2    3    3    0    0  0.96893442051E+02 -0.61062552873E+02 -0.18400849917E+03  0.22913949389E+03  0.74355937344E+02 0.  0.
       -6    2    1    2    0  504 -0.11221473385E+03  0.38379805831E+02 -0.10304490096E+03  0.23509464018E+03  0.17488877105E+03 0.  0.
      -24    2    5    5    0    0 -0.79397307189E+02  0.45592577954E+02  0.48016682393E+01  0.12203722087E+03  0.80544470361E+02 0.  0.
        5    1    3    3  501    0  0.15321291797E+02  0.22682747042E+02 -0.26961936960E+03  0.27104601723E+03  0.47000000000E+01 0. -1.
        2    1    4    4  502    0  0.37156180876E+02 -0.45806363430E+02 -0.14407948120E+03  0.15568462227E+03  0.00000000000E+00 0. -1.
       -1    1    4    4    0  502  0.59737261174E+02 -0.15256189443E+02 -0.39929017964E+02  0.73454871619E+02  0.00000000000E+00 0.  1.
       -5    1    5    5    0  504 -0.32817426658E+02 -0.72127721235E+01 -0.10784656920E+03  0.11305741931E+03  0.47000000000E+01 0.  1.
       13    1    6    6    0    0 -0.67023602034E+02  0.49777453132E+02 -0.26930008011E+02  0.87722194463E+02  0.00000000000E+00 0. -1.
      -14    1    6    6    0    0 -0.12373705155E+02 -0.41848751779E+01  0.31731676250E+02  0.34315026405E+02  0.00000000000E+00 0.  1.
</event>
<event>
12   0  0.1523332E-01  0.2647597E+03  0.7957747E-01  0.1111988E+00
       21   -1    0    0  504  503  0.00000000000E+00  0.00000000000E+00  0.38882707515E+03  0.38882707515E+03  0.00000000000E+00 0.  1.
       21   -1    0    0  501  504  0.00000000000E+00  0.00000000000E+00 -0.22532027958E+03  0.22532027958E+03  0.00000000000E+00 0.  1.
        6    2    1    2  501    0 -0.96276801141E+01  0.19943947673E+03 -0.57571681251E+02  0.27094684936E+03  0.17386460133E+03 0.  0.
       24    2    3    3    0    0 -0.40730678747E+02  0.13660353650E+03  0.22323836804E+02  0.16454602364E+03  0.79104524724E+02 0.  0.
       -6    2    1    2    0  503  0.96276801141E+01 -0.19943947673E+03  0.22107847683E+03  0.34320050537E+03  0.17041741949E+03 0.  0.
      -24    2    5    5    0    0 -0.77650615646E+00 -0.16771128537E+03  0.24062126468E+03  0.30422697876E+03  0.80794699009E+02 0.  0.
        5    1    3    3  501    0  0.31102998633E+02  0.62835940232E+02 -0.79895518055E+02  0.10640082572E+03  0.47000000000E+01 0. -1.
      -13    1    4    4    0    0 -0.28937450731E+02  0.27346290487E+02 -0.22651192260E+02  0.45806900888E+02  0.00000000000E+00 0.  1.
       14    1    4    4    0    0 -0.11793228015E+02  0.10925724601E+03  0.44975029064E+02  0.11873912276E+03  0.00000000000E+00 0. -1.
       -5    1    5    5    0  503  0.10404186271E+02 -0.31728191361E+02 -0.19542787855E+02  0.38973526606E+02  0.47000000000E+01 0.  1.
        1    1    6    6  502    0 -0.40604855864E+02 -0.76036543443E+02  0.11280746008E+03  0.14197124113E+03  0.00000000000E+00 0. -1.
       -2    1    6    6    0  502  0.39828349708E+02 -0.91674741927E+02  0.12781380460E+03  0.16225573763E+03  0.00000000000E+00 0.  1.
</event>
<event>
12   0  0.1523332E-01  0.1872057E+03  0.7957747E-01  0.1166865E+00
       21   -1    0    0  504  503  0.00000000000E+00  0.00000000000E+00  0.33555502473E+03  0.33555502473E+03  0.00000000000E+00 0. -1.
       21   -1    0    0  501  504  0.00000000000E+00  0.00000000000E+00 -0.10436840594E+03  0.10436840594E+03  0.00000000000E+00 0. -1.
        6    2    1    2  501    0 -0.27695688845E+02  0.64097181174E+02  0.10421173716E+03  0.21425702719E+03  0.17369653918E+03 0.  0.
       24    2    3    3    0    0 -0.16287801897E+02  0.10232260340E+03  0.37610019365E+02  0.13648041372E+03  0.80480942567E+02 0.  0.
       -6    2    1    2    0  503  0.27695688845E+02 -0.64097181174E+02  0.12697488163E+03  0.22566640348E+03  0.17299481287E+03 0.  0.
      -24    2    5    5    0    0  0.25977303077E+02  0.30230147741E+02  0.87266282636E+02  0.12319952754E+03  0.77291897339E+02 0.  0.
        5    1    3    3  501    0 -0.11407886949E+02 -0.38225422224E+02  0.66601717792E+02  0.77776613463E+02  0.47000000000E+01 0. -1.
      -11    1    4    4    0    0 -0.15362470206E+01  0.74796462124E+02 -0.14044507097E+02  0.76119110484E+02  0.00000000000E+00 0.  1.
       12    1    4    4    0    0 -0.14751554876E+02  0.27526141274E+02  0.51654526462E+02  0.60361303240E+02  0.00000000000E+00 0. -1.
       -5    1    5    5    0  503  0.17183857686E+01 -0.94327328916E+02  0.39708598994E+02  0.10246687594E+03  0.47000000000E+01 0.  1.
        1    1    6    6  502    0  0.35167965588E+02 -0.14335279326E+02  0.57202875535E+02  0.68661889039E+02  0.00000000000E+00 0. -1.
       -2    1    6    6    0  502 -0.91906625108E+01  0.44565427068E+02  0.30063407102E+02  0.54537638505E+02  0.00000000000E+00 0.  1.
</event>
<event>
12   0  0.1523332E-01  0.1900960E+03  0.7957747E-01  0.1164325E+00
       21   -1    0    0  504  503  0.00000000000E+00  0.00000000000E+00  0.33805802475E+03  0.33805802475E+03  0.00000000000E+00 0.  1.
       21   -1    0    0  501  504  0.00000000000E+00  0.00000000000E+00 -0.13277245725E+03  0.13277245725E+03  0.00000000000E+00 0.  1.
        6    2    1    2  501    0 -0.21216386371E+02 -0.33993096320E+02 -0.15662179170E+02  0.17936112777E+03  0.17412479620E+03 0.  0.
       24    2    3    3    0    0  0.50895922533E+02  0.27946067080E+01 -0.27120953448E+02  0.97465378813E+02  0.78522284698E+02 0.  0.
       -6    2    1    2    0  503  0.21216386371E+02  0.33993096320E+02  0.22094774668E+03  0.29146935423E+03  0.18582468094E+03 0.  0.
      -24    2    5    5    0    0  0.73475249958E+02  0.30851184648E+02  0.20923706325E+03  0.23761686554E+03  0.79568952476E+02 0.  0.
        5    1    3    3  501    0 -0.72112308904E+02 -0.36787703028E+02  0.11458774278E+02  0.81895748958E+02  0.47000000000E+01 0. -1.
      -11    1    4    4    0    0  0.26021139273E+02  0.37032094403E+02  0.32482834232E+01  0.45376503283E+02  0.00000000000E+00 0.  1.
       12    1    4    4    0    0  0.24874783260E+02 -0.34237487695E+02 -0.30369236871E+02  0.52088875531E+02  0.00000000000E+00 0. -1.
       -5    1    5    5    0  503 -0.52258863587E+02  0.31419116718E+01  0.11710683425E+02  0.53852488695E+02  0.47000000000E+01 0.  1.
        1    1    6    6  502    0  0.50700793505E+02  0.17905660867E+02  0.41701498388E+02  0.68045559157E+02  0.00000000000E+00 0. -1.
       -2    1    6    6    0  502  0.22774456452E+02  0.12945523781E+02  0.16753556486E+03  0.16957130638E+03  0.00000000000E+00 0.  1.
</event>
<event>
12   0  0.1523332E-01  0.2309738E+03  0.7957747E-01  0.1132974E+00
       21   -1    0    0  504  503  0.00000000000E+00  0.00000000000E+00  0.16410589801E+03  0.16410589801E+03  0.00000000000E+00 0.  1.
       21   -1    0    0  501  504  0.00000000000E+00  0.00000000000E+00 -0.40697192861E+03  0.40697192861E+03  0.00000000000E+00 0. -1.
        6    2    1    2  501    0  0.13158780842E+03  0.79470517565E+02 -0.25002657552E+03  0.33999302508E+03  0.17161309436E+03 0.  0.
       24    2    3    3    0    0  0.14554534367E+03  0.19510398274E+02 -0.18816580804E+03  0.25259237721E+03  0.82658544647E+02 0.  0.
       -6    2    1    2    0  503 -0.13158780842E+03 -0.79470517565E+02  0.71605449151E+01  0.23108480153E+03  0.17238908785E+03 0.  0.
      -24    2    5    5    0    0 -0.11862499304E+03  0.46689480696E+01  0.26857781839E+02  0.14357734241E+03  0.76153954312E+02 0.  0.
        5    1    3    3  501    0 -0.13957535258E+02  0.59960119291E+02 -0.61860767475E+02  0.87400647872E+02  0.47000000000E+01 0. -1.
        4    1    4    4  502    0  0.83050933595E+02  0.51573608714E+02 -0.99699176561E+02  0.13963244785E+03  0.00000000000E+00 0. -1.
       -3    1    4    4    0  502  0.62494410078E+02 -0.32063210440E+02 -0.88466631480E+02  0.11295992936E+03  0.00000000000E+00 0.  1.
       -5    1    5    5    0  503 -0.12962815376E+02 -0.84139465635E+02 -0.19697236924E+02  0.87507459123E+02  0.47000000000E+01 0.  1.
       13    1    6    6    0    0 -0.85132587607E+01  0.25472837273E+02  0.15333220434E+02  0.30926504205E+02  0.00000000000E+00 0. -1.
      -14    1    6    6    0    0 -0.11011173428E+03 -0.20803889203E+02  0.11524561405E+02  0.11265083820E+03  0.00000000000E+00 0.  1.
</event>
<event>
12   0  0.1523332E-01  0.1957106E+03  0.7957747E-01  0.1159530E+00
        2   -1    0    0  502    0  0.00000000000E+00  0.00000000000E+00  0.43830582876E+03  0.43830582876E+03  0.00000000000E+00 0. -1.
       -2   -1    0    0    0  501  0.00000000000E+00  0.00000000000E+00 -0.96973332078E+02  0.96973332078E+02  0.00000000000E+00 0.  1.
        6    2    1    2  502    0  0.90381564735E+02 -0.76856499780E+01  0.25433753857E+03  0.32055706366E+03  0.17274649367E+03 0.  0.
       24    2    3    3    0    0 -0.96643449597E+01  0.26515882631E+02  0.15797191665E+03  0.17742302868E+03  0.75679013358E+02 0.  0.
       -6    2    1    2    0  501 -0.90381564735E+02  0.76856499780E+01  0.86994958111E+02  0.21472209718E+03  0.17409640956E+03 0.  0.
      -24    2    5    5    0    0 -0.15850773666E+02 -0.41034136664E+02  0.85844173054E+02  0.12554883474E+03  0.80363178508E+02 0.  0.
        5    1    3    3  502    0  0.10004590970E+03 -0.34201532609E+02  0.96365621928E+02  0.14313403498E+03  0.47000000000E+01 0. -1.
      -11    1    4    4    0    0  0.26324894417E+01 -0.22702181237E+02  0.88478686031E+02  0.91382694835E+02  0.00000000000E+00 0.  1.
       12    1    4    4    0    0 -0.12296834401E+02  0.49218063868E+02  0.69493230616E+02  0.86040333848E+02  0.00000000000E+00 0. -1.
       -5    1    5    5    0  501 -0.74530791069E+02  0.48719786642E+02  0.11507850570E+01  0.89173262439E+02  0.47000000000E+01 0.  1.
        1    1    6    6  503    0  0.56295449168E+01 -0.43200524407E+02  0.74022417752E+01  0.44190160311E+02  0.00000000000E+00 0. -1.
       -2    1    6    6    0  503 -0.21480318583E+02  0.21663877429E+01  0.78441931279E+02  0.81358674430E+02  0.00000000000E+00 0.  1.
</event>
<event>
12   0  0.1523332E-01  0.1832437E+03  0.7957747E-01  0.1170430E+00
       21   -1    0    0  501  503  0.00000000000E+00  0.00000000000E+00  0.72923599979E+02  0.72923599979E+02  0.00000000000E+00 0.  1.
       21   -1    0    0  503  504  0.00000000000E+00  0.00000000000E+00 -0.45904208784E+03  0.45904208784E+03  0.00000000000E+00 0.  1.
        6    2    1    2  501    0 -0.44375477799E+02  0.15103608494E+02 -0.22743489367E+03  0.28956366389E+03  0.17298318579E+03 0.  0.
       24    2    3    3    0    0 -0.76890422582E+02 -0.31762643985E+02 -0.11449574382E+03  0.16295004367E+03  0.80761616763E+02 0.  0.
       -6    2    1    2    0  504  0.44375477799E+02 -0.15103608494E+02 -0.15868359418E+03  0.24240202392E+03  0.17714670790E+03 0.  0.
      -24    2    5    5    0    0  0.23917684687E+02  0.43459292520E+02 -0.15379032227E+03  0.17999874850E+03  0.79292625683E+02 0.  0.
        5    1    3    3  501    0  0.32514944783E+02  0.46866252479E+02 -0.11293914985E+03  0.12661362022E+03  0.47000000000E+01 0. -1.
      -13    1    4    4    0    0 -0.40870972245E+02 -0.57126670299E+02 -0.83338031799E+02  0.10899137753E+03  0.00000000000E+00 0.  1.
       14    1    4    4    0    0 -0.36019450337E+02  0.25364026314E+02 -0.31157712020E+02  0.53958666142E+02  0.00000000000E+00 0. -1.
       -5    1    5    5    0  504  0.20457793112E+02 -0.58562901014E+02 -0.48932719108E+01  0.62403275429E+02  0.47000000000E+01 0.  1.
        1    1    6    6  502    0  0.12276034089E+02 -0.22473380196E+02 -0.54859058917E+02  0.60541474839E+02  0.00000000000E+00 0. -1.
       -2    1    6    6    0  502  0.11641650597E+02  0.65932672716E+02 -0.98931263356E+02  0.11945727366E+03  0.00000000000E+00 0.  1.
</event>
<event>
12   0  0.1523332E-01  0.1778541E+03  0.7957747E-01  0.1175441E+00
       21   -1    0    0  504  503  0.00000000000E+00  0.00000000000E+00  0.17672173038E+03  0.17672173038E+03  0.00000000000E+00 0.  1.
       21   -1    0    0  501  504  0.00000000000E+00  0.00000000000E+00 -0.18357702756E+03  0.18357702756E+03  0.00000000000E+00 0.  1.
        6    2    1    2  501    0  0.40509020976E+02 -0.44327095290E+01 -0.34132192123E+02  0.18109964000E+03  0.17312262526E+03 0.  0.
       24    2    3    3    0    0 -0.44781091462E+02  0.79043587853E+01 -0.22517332839E+02  0.94015763822E+02  0.79146121374E+02 0.  0.
       -6    2    1    2    0  503 -0.40509020976E+02  0.44327095290E+01  0.27276894940E+02  0.17919911794E+03  0.17235911690E+03 0.  0.
      -24    2    5    5    0    0 -0.26714063616E+02 -0.28760242429E+02 -0.43881707711E+02  0.99338554211E+02  0.80010945137E+02 0.  0.
        5    1    3    3  501    0  0.85290112438E+02 -0.12337068314E+02 -0.11614859283E+02  0.87083876180E+02  0.47000000000E+01 0. -1.
        2    1    4    4  502    0 -0.41551701833E+02 -0.23733925253E+02  0.96123172951E+01  0.48808193748E+02  0.00000000000E+00 0. -1.
       -1    1    4    4    0  502 -0.32293896290E+01  0.31638284039E+02 -0.32129650134E+02  0.45207570074E+02  0.00000000000E+00 0.  1.
       -5    1    5    5    0  503 -0.13794957361E+02  0.33192951958E+02  0.71158602652E+02  0.79860563732E+02  0.47000000000E+01 0.  1.
       13    1    6    6    0    0 -0.42954888700E+02 -0.15992389050E+02 -0.58289307544E+02  0.74152021852E+02  0.00000000000E+00 0. -1.
      -14    1    6    6    0    0  0.16240825085E+02 -0.12767853380E+02  0.14407599832E+02  0.25186532359E+02  0.00000000000E+00 0.  1.
</event>
<event>
12   0  0.1523332E-01  0.2473075E+03  0.7957747E-01  0.1122372E+00
        2   -1    0    0  502    0  0.00000000000E+00  0.00000000000E+00  0.14831018582E+04  0.14831018582E+04  0.00000000000E+00 0.  1.
       -2   -1    0    0    0  501  0.00000000000E+00  0.00000000000E+00 -0.41642345583E+02  0.41642345583E+02  0.00000000000E+00 0. -1.
        6    2    1    2  502    0  0.13404359634E+03 -0.10561914378E+03  0.78385652832E+03  0.82081262442E+03  0.17372166867E+03 0.  0.
       24    2    3    3    0    0  0.63814787910E+01 -0.47775080992E+02  0.21667404668E+03  0.23655103118E+03  0.81765311791E+02 0.  0.
       -6    2    1    2    0  501 -0.13404359634E+03  0.10561914378E+03  0.65760298428E+03  0.70393157935E+03  0.18426853832E+03 0.  0.
      -24    2    5    5    0    0 -0.68910097862E+02  0.64601026851E+02  0.16471132502E+03  0.20504367980E+03  0.77402815068E+02 0.  0.
        5    1    3    3  502    0  0.12766211754E+03 -0.57844062790E+02  0.56718248164E+03  0.58426159324E+03  0.47000000000E+01 0. -1.
      -13    1    4    4    0    0 -0.18107855092E+02 -0.34222676173E+02  0.20054252307E+03  0.20424590458E+03  0.00000000000E+00 0.  1.
       14    1    4    4    0    0  0.24489333883E+02 -0.13552404819E+02  0.16131523613E+02  0.32305126598E+02  0.00000000000E+00 0. -1.
       -5    1    5    5    0  501 -0.65133498474E+02  0.41018116931E+02  0.49289165927E+03  0.49888789955E+03  0.47000000000E+01 0.  1.
        3    1    6    6  503    0 -0.19774227106E+01  0.52860282955E+02  0.57687353024E+02  0.78268450947E+02  0.00000000000E+00 0. -1.
       -4    1    6    6    0  503 -0.66932675151E+02  0.11740743895E+02  0.10702397199E+03  0.12677522885E+03  0.00000000000E+00 0.  1.
</event>
<event>
12   0  0.1523332E-01  0.1950347E+03  0.7957747E-01  0.1160098E+00
       21   -1    0    0  504  503  0.00000000000E+00  0.00000000000E+00  0.23626449830E+03  0.23626449830E+03  0.00000000000E+00 0. -1.
       21   -1    0    0  501  504  0.00000000000E+00  0.00000000000E+00 -0.49083311196E+03  0.49083311196E+03  0.00000000000E+00 0. -1.
        6    2    1    2  501    0  0.51207812007E+02  0.61234489411E+02 -0.42723458864E+03  0.46964661337E+03  0.17795124336E+03 0.  0.
       24    2    3    3    0    0  0.35930257920E+01 -0.23452410398E+02 -0.28670657436E+03  0.29873946998E+03  0.80508917218E+02 0.  0.
       -6    2    1    2    0  503 -0.51207812007E+02 -0.61234489411E+02  0.17266597498E+03  0.25745099689E+03  0.17348076025E+03 0.  0.
      -24    2    5    5    0    0 -0.48040962677E+02 -0.91996441265E+02  0.68591751991E+02  0.14877781479E+03  0.81601044306E+02 0.  0.
        5    1    3    3  501    0  0.47614786216E+02  0.84686899809E+02 -0.14052801428E+03  0.17090714339E+03  0.47000000000E+01 0. -1.
        2    1    4    4  502    0  0.34121339553E+02 -0.21810206026E+02 -0.23661345413E+03  0.24005390556E+03  0.00000000000E+00 0. -1.
       -1    1    4    4    0  502 -0.30528313761E+02 -0.16422043715E+01 -0.50093120237E+02  0.58685564421E+02  0.00000000000E+00 0.  1.
       -5    1    5    5    0  503 -0.31668493309E+01  0.30761951854E+02  0.10407422299E+03  0.10867318210E+03  0.47000000000E+01 0.  1.
       11    1    6    6    0    0 -0.46274700203E+02 -0.53292548963E+02  0.81618002991E+02  0.10790246552E+03  0.00000000000E+00 0. -1.
      -12    1    6    6    0    0 -0.17662624731E+01 -0.38703892302E+02 -0.13026251000E+02  0.40875349265E+02  0.00000000000E+00 0.  1.
</event>
<event>
12   0  0.1523332E-01  0.1943096E+03  0.7957747E-01  0.1160710E+00
       21   -1    0    0  504  503  0.00000000000E+00  0.00000000000E+00  0.41435976594E+03  0.41435976594E+03  0.00000000000E+00 0. -1.
       21   -1    0    0  501  504  0.00000000000E+00  0.00000000000E+00 -0.99626951893E+02  0.99626951893E+02  0.00000000000E+00 0. -1.
        6    2    1    2  501    0  0.21899787200E+02 -0.85207263516E+02  0.81382414559E+02  0.21066400198E+03  0.17325226086E+03 0.  0.
       24    2    3    3    0    0  0.61938372286E+02 -0.74152158428E+00  0.43662792613E+02  0.10975607496E+03  0.79391716919E+02 0.  0.
       -6    2    1    2    0  503 -0.21899787200E+02  0.85207263516E+02  0.23335039948E+03  0.30332271585E+03  0.17266262646E+03 0.  0.
      -24    2    5    5    0    0  0.49896431069E+01  0.51545800525E+01  0.33501186631E+02  0.86312873980E+02  0.79221944403E+02 0.  0.
        5    1    3    3  501    0 -0.40038585086E+02 -0.84465741932E+02  0.37719621946E+02  0.10090792702E+03  0.47000000000E+01 0. -1.
      -13    1    4    4    0    0 -0.56888422502E+01  0.49726904098E+01 -0.17078902328E+02  0.18675638698E+02  0.00000000000E+00 0.  1.
       14    1    4    4    0    0  0.67627214536E+02 -0.57142119941E+01  0.60741694941E+02  0.91080436258E+02  0.00000000000E+00 0. -1.
       -5    1    5    5    0  503 -0.26889430307E+02  0.80052683463E+02  0.19984921285E+03  0.21700984187E+03  0.47000000000E+01 0.  1.
        3    1    6    6  502    0 -0.10702982038E+02  0.35141839430E+02  0.37181493983E+02  0.52268214030E+02  0.00000000000E+00 0. -1.
       -4    1    6    6    0  502  0.15692625145E+02 -0.29987259377E+02 -0.36803073521E+01  0.34044659950E+02  0.00000000000E+00 0.  1.
</event>
<event>
12   0  0.1523332E-01  0.3596288E+03  0.7957747E-01  0.1067625E+00
       21   -1    0    0  501  503  0.00000000000E+00  0.00000000000E+00  0.41445523007E+03  0.41445523007E+03  0.00000000000E+00 0. -1.
       21   -1    0    0  503  504  0.00000000000E+00  0.00000000000E+00 -0.77499468831E+03  0.77499468831E+03  0.00000000000E+00 0. -1.
        6    2    1    2  501    0 -0.55531594320E+02 -0.30957227725E+03  0.27946786076E+03  0.45532305102E+03  0.17406332982E+03 0.  0.
       24    2    3    3    0    0 -0.57343605463E+02 -0.21033290986E+03  0.26986822541E+03  0.35549330384E+03  0.77578398595E+02 0.  0.
       -6    2    1    2    0  504  0.55531594320E+02  0.30957227725E+03 -0.64000731900E+03  0.73412686737E+03  0.17439649140E+03 0.  0.
      -24    2    5    5    0    0  0.95450542062E+02  0.28759414349E+03 -0.57271740259E+03  0.65272303698E+03  0.78872951128E+02 0.  0.
        5    1    3    3  501    0  0.18120111431E+01 -0.99239367385E+02  0.95996353439E+01  0.99829747180E+02  0.47000000000E+01 0. -1.
      -11    1    4    4    0    0 -0.73166741350E+02 -0.18718295482E+03  0.21781914879E+03  0.29637140921E+03  0.00000000000E+00 0.  1.
       12    1    4    4    0    0  0.15823135887E+02 -0.23149955040E+02  0.52049076623E+02  0.59121894632E+02  0.00000000000E+00 0. -1.
       -5    1    5    5    0  504 -0.39918947742E+02  0.21978133754E+02 -0.67289916401E+02  0.81403830385E+02  0.47000000000E+01 0.  1.
        3    1    6    6  502    0  0.41715474338E+02  0.12124069602E+03 -0.16387208785E+03  0.20807101755E+03  0.00000000000E+00 0. -1.
       -4    1    6    6    0  502  0.53735067724E+02  0.16635344747E+03 -0.40884531475E+03  0.44465201943E+03  0.00000000000E+00 0.  1.
</event>
<event>
12   0  0.1523332E-01  0.1998756E+03  0.7957747E-01  0.1156086E+00
       21   -1    0    0  501  503  0.00000000000E+00  0.00000000000E+00  0.66868649194E+03  0.66868649194E+03  0.00000000000E+00 0.  1.
       21   -1    0    0  503  504  0.00000000000E+00  0.00000000000E+00 -0.98004146197E+02  0.98004146197E+02  0.00000000000E+00 0.  1.
        6    2    1    2  501    0 -0.87905250666E+02  0.47164373558E+02  0.52592871612E+03  0.56186598557E+03  0.17070606337E+03 0.  0.
       24    2    3    3    0    0 -0.25682861540E+02  0.57281765741E+02  0.45677987437E+03  0.46817692725E+03  0.81246363095E+02 0.  0.
       -6    2    1    2    0  504  0.87905250666E+02 -0.47164373558E+02  0.44753629620E+02  0.20482465257E+03  0.17320057652E+03 0.  0.
      -24    2    5    5    0    0  0.10701364408E+03 -0.33787104536E+02  0.87175562863E+02  0.15618524010E+03  0.64813285764E+02 0.  0.
        5    1    3    3  501    0 -0.62222389126E+02 -0.10117392183E+02  0.69148841750E+02  0.93689058318E+02  0.47000000000E+01 0. -1.
      -11    1    4    4    0    0 -0.28893839363E+02  0.73809512253E+02  0.42379212307E+03  0.43114088374E+03  0.00000000000E+00 0.  1.
       12    1    4    4    0    0  0.32109778232E+01 -0.16527746512E+02  0.32987751300E+02  0.37036043514E+02  0.00000000000E+00 0. -1.
       -5    1    5    5    0  504 -0.19108393414E+02 -0.13377269022E+02 -0.42421933242E+02  0.48639412470E+02  0.47000000000E+01 0.  1.
        3    1    6    6  502    0  0.24626933273E+02  0.19261084202E+02  0.26049834740E+02  0.40694828873E+02  0.00000000000E+00 0. -1.
       -4    1    6    6    0  502  0.82386710807E+02 -0.53048188738E+02  0.61125728123E+02  0.11549041122E+03  0.00000000000E+00 0.  1.
</event>
<event>
12   0  0.1523332E-01  0.2155162E+03  0.7957747E-01  0.1143928E+00
       -2   -1    0    0    0  501  0.00000000000E+00  0.00000000000E+00  0.15364771962E+03  0.15364771962E+03  0.00000000000E+00 0. -1.
        2   -1    0    0  502    0  0.00000000000E+00  0.00000000000E+00 -0.30239582271E+03  0.30239582271E+03  0.00000000000E+00 0.  1.
        6    2    1    2  502    0 -0.70116943737E+02  0.10574704627E+03 -0.70036226424E+02  0.22544124430E+03  0.17268427267E+03 0.  0.
       24    2    3    3    0    0 -0.54739324240E+02  0.88480351769E+02 -0.11504090400E+03  0.17462667037E+03  0.80217816872E+02 0.  0.
       -6    2    1    2    0  501  0.70116943737E+02 -0.10574704627E+03 -0.78711876668E+02  0.23060229803E+03  0.17573570137E+03 0.  0.
      -24    2    5    5    0    0 -0.19870857398E+02 -0.66970751915E+02 -0.21446939458E+02  0.11701194461E+03  0.91388683014E+02 0.  0.
        5    1    3    3  502    0 -0.15377619497E+02  0.17266694499E+02  0.45004677576E+02  0.50814573933E+02  0.47000000000E+01 0. -1.
        2    1    4    4  503    0 -0.74285312372E+02  0.56952109899E+02 -0.90127751261E+02  0.12994176389E+03  0.00000000000E+00 0. -1.
       -1    1    4    4    0  503  0.19545988132E+02  0.31528241870E+02 -0.24913152739E+02  0.44684906477E+02  0.00000000000E+00 0.  1.
       -5    1    5    5    0  501  0.89987801136E+02 -0.38776294353E+02 -0.57264937210E+02  0.11359035342E+03  0.47000000000E+01 0.  1.
       13    1    6    6    0    0 -0.85448269579E+01  0.90345440031E+00  0.29927728849E+02  0.31136782937E+02  0.00000000000E+00 0. -1.
      -14    1    6    6    0    0 -0.11326030440E+02 -0.67874206315E+02 -0.51374668307E+02  0.85875161671E+02  0.00000000000E+00 0.  1.
</event>
<event>
12   0  0.1523332E-01  0.1916281E+03  0.7957747E-01  0.1162999E+00
       21   -1    0    0  504  503  0.00000000000E+00  0.00000000000E+00  0.28940809571E+03  0.28940809571E+03  0.00000000000E+00 0. -1.
       21   -1    0    0  501  504  0.00000000000E+00  0.00000000000E+00 -0.13556664560E+03  0.13556664560E+03  0.00000000000E+00 0.  1.
        6    2    1    2  501    0  0.50744957125E+02 -0.63578433997E+02  0.22903090267E+02  0.19299190300E+03  0.17350520204E+03 0.  0.
       24    2    3    3    0    0  0.72296681158E+01 -0.55897296065E+02 -0.48078174187E+02  0.10924818585E+03  0.80292462105E+02 0.  0.
       -6    2    1    2    0  503 -0.50744957125E+02  0.63578433997E+02  0.13093835985E+03  0.23198283832E+03  0.17336065081E+03 0.  0.
      -24    2    5    5    0    0 -0.39823870070E+02  0.42463468112E+00  0.44341976679E+01  0.90091804211E+02  0.80689219448E+02 0.  0.
        5    1    3    3  501    0  0.43515289009E+02 -0.76811379317E+01  0.70981264454E+02  0.83743717144E+02  0.47000000000E+01 0. -1.
        2    1    4    4  502    0  0.29145291147E+02 -0.32913506508E+02 -0.60806702427E+02  0.75034671764E+02  0.00000000000E+00 0. -1.
       -1    1    4    4    0  502 -0.21915623031E+02 -0.22983789557E+02  0.12728528240E+02  0.34213514090E+02  0.00000000000E+00 0.  1.
       -5    1    5    5    0  503 -0.10921087055E+02  0.63153799315E+02  0.12650416218E+03  0.14189103410E+03  0.47000000000E+01 0.  1.
       11    1    6    6    0    0 -0.39791866850E+02 -0.12017411758E+02  0.36737746877E+02  0.55474975424E+02  0.00000000000E+00 0. -1.
      -12    1    6    6    0    0 -0.32003219909E-01  0.12442046439E+02 -0.32303549209E+02  0.34616828787E+02  0.00000000000E+00 0.  1.
</event>
<event>
12   0  0.1523332E-01  0.1812065E+03  0.7957747E-01  0.1172302E+00
        2   -1    0    0  502    0  0.00000000000E+00  0.00000000000E+00  0.18988850876E+04  0.18988850876E+04  0.00000000000E+00 0. -1.
       -2   -1    0    0    0  501  0.00000000000E+00  0.00000000000E+00 -0.30990419800E+02  0.30990419800E+02  0.00000000000E+00 0.  1.
        6    2    1    2  502    0 -0.34026089208E+02  0.43593984794E+02  0.15771985966E+04  0.15876427160E+04  0.17319287066E+03 0.  0.
       24    2    3    3    0    0 -0.32508999177E+02 -0.40320027407E+02  0.72639179928E+03  0.73269350155E+03  0.80698088667E+02 0.  0.
       -6    2    1    2    0  501  0.34026089208E+02 -0.43593984794E+02  0.29069607123E+03  0.34223279138E+03  0.17193274095E+03 0.  0.
      -24    2    5    5    0    0  0.39542843149E+02 -0.17194125971E+02  0.30011983641E+03  0.31327964872E+03  0.78822253750E+02 0.  0.
        5    1    3    3  502    0 -0.15170900310E+01  0.83914012202E+02  0.85080679729E+03  0.85494921447E+03  0.47000000000E+01 0. -1.
      -11    1    4    4    0    0 -0.25389919487E+02 -0.46400742029E+02  0.22197363426E+03  0.22818845541E+03  0.00000000000E+00 0.  1.
       12    1    4    4    0    0 -0.71190796899E+01  0.60807146217E+01  0.50441816502E+03  0.50450504615E+03  0.00000000000E+00 0. -1.
       -5    1    5    5    0  501 -0.55167539402E+01 -0.26399858823E+02 -0.94237651747E+01  0.28953142661E+02  0.47000000000E+01 0.  1.
        3    1    6    6  503    0  0.20495714845E+02 -0.48157763636E+02  0.15178081786E+03  0.16055111708E+03  0.00000000000E+00 0. -1.
       -4    1    6    6    0  503  0.19047128303E+02  0.30963637664E+02  0.14833901854E+03  0.15272853164E+03  0.00000000000E+00 0.  1.
</event>
<event>
12   0  0.1523332E-01  0.2553075E+03  0.7957747E-01  0.1117500E+00
       21   -1    0    0  504  503  0.00000000000E+00  0.00000000000E+00  0.51502490019E+03  0.51502490019E+03  0.00000000000E+00 0.  1.
       21   -1    0    0  501  504  0.00000000000E+00  0.00000000000E+00 -0.16082449400E+03  0.16082449400E+03  0.00000000000E+00 0.  1.
        6    2    1    2  501    0 -0.15208346449E+03 -0.11154718339E+03  0.20397910342E+02  0.25560417295E+03  0.17130459476E+03 0.  0.
       24    2    3    3    0    0 -0.14455274337E+03 -0.76900729169E+02 -0.38448760384E+02  0.18674119882E+03  0.81146474947E+02 0.  0.
       -6    2    1    2    0  503  0.15208346449E+03  0.11154718339E+03  0.33380249585E+03  0.42024522124E+03  0.17207494137E+03 0.  0.
      -24    2    5    5    0    0  0.66954798184E+02 -0.13241723680E+02  0.13603111841E+03  0.17133807211E+03  0.78701852152E+02 0.  0.
        5    1    3    3  501    0 -0.75307211193E+01 -0.34646454221E+02  0.58846670725E+02  0.68862974131E+02  0.47000000000E+01 0. -1.
        4    1    4    4  502    0 -0.50306360619E+02 -0.72535606237E+02 -0.15209703832E+02  0.89573875553E+02  0.00000000000E+00 0. -1.
       -3    1    4    4    0  502 -0.94246382755E+02 -0.43651229316E+01 -0.23239056552E+02  0.97167323262E+02  0.00000000000E+00 0.  1.
       -5    1    5    5    0  503  0.85128666309E+02  0.12478890707E+03  0.19777137744E+03  0.24890714913E+03  0.47000000000E+01 0.  1.
       13    1    6    6    0    0  0.45277141871E+01  0.16387185437E+02  0.81659017035E+02  0.83410041994E+02  0.00000000000E+00 0. -1.
      -14    1    6    6    0    0  0.62427083997E+02 -0.29628909118E+02  0.54372101373E+02  0.87928030113E+02  0.00000000000E+00 0.  1.
</event>
<event>
12   0  0.1523332E-01  0.2179202E+03  0.7957747E-01  0.1142160E+00
        2   -1    0    0  502    0  0.00000000000E+00  0.00000000000E+00  0.11408318676E+03  0.11408318676E+03  0.00000000000E+00 0. -1.
       -2   -1    0    0    0  501  0.00000000000E+00  0.00000000000E+00 -0.43384392699E+03  0.43384392699E+03  0.00000000000E+00 0.  1.
        6    2    1    2  502    0  0.12493199519E+03 -0.44012186467E+02 -0.10458886510E+03  0.24152684866E+03  0.17277532214E+03 0.  0.
       24    2    3    3    0    0 -0.88664159977E+01 -0.27970260942E+02 -0.40269849442E+02  0.92133461968E+02  0.77498162626E+02 0.  0.
       -6    2    1    2    0  501 -0.12493199519E+03  0.44012186467E+02 -0.21517187514E+03  0.30640026509E+03  0.17331217677E+03 0.  0.
      -24    2    5    5    0    0 -0.56406175988E+02  0.79556312286E+02 -0.18332528946E+03  0.22276135191E+03  0.80644867392E+02 0.  0.
        5    1    3    3  502    0  0.13379841119E+03 -0.16041925524E+02 -0.64319015659E+02  0.14939338669E+03  0.47000000000E+01 0. -1.
      -11    1    4    4    0    0 -0.76539296686E+01  0.26341627859E+02 -0.65786508470E+01  0.28208910730E+02  0.00000000000E+00 0.  1.
       12    1    4    4    0    0 -0.12124863290E+01 -0.54311888801E+02 -0.33691198595E+02  0.63924551238E+02  0.00000000000E+00 0. -1.
       -5    1    5    5    0  501 -0.68525819206E+02 -0.35544125819E+02 -0.31846585680E+02  0.83638913177E+02  0.47000000000E+01 0.  1.
        1    1    6    6  503    0  0.17230803596E+02  0.38102123486E+02 -0.54514285539E+02  0.68705747464E+02  0.00000000000E+00 0. -1.
       -2    1    6    6    0  503 -0.73636979585E+02  0.41454188800E+02 -0.12881100392E+03  0.15405560445E+03  0.00000000000E+00 0.  1.
</event>
<event>
12   0  0.1523332E-01  0.2409287E+03  0.7957747E-01  0.1126403E+00
       -2   -1    0    0    0  501  0.00000000000E+00  0.00000000000E+00  0.12814461013E+03  0.12814461013E+03  0.00000000000E+00 0.  1.
        2   -1    0    0  502    0  0.00000000000E+00  0.00000000000E+00 -0.46899009405E+03  0.46899009405E+03  0.00000000000E+00 0. -1.
        6    2    1    2  502    0 -0.12730466075E+03 -0.10503164281E+03 -0.22471307613E+03  0.32854495186E+03  0.17380361381E+03 0.  0.
       24    2    3    3    0    0 -0.27343822824E+02 -0.29786471469E+02 -0.26616776246E+02  0.94198543834E+02  0.80808380466E+02 0.  0.
       -6    2    1    2    0  501  0.12730466075E+03  0.10503164281E+03 -0.11613240779E+03  0.26858975232E+03  0.17724445343E+03 0.  0.
      -24    2    5    5    0    0  0.99696411227E+02  0.77113961972E+01 -0.10685136708E+03  0.16689573303E+03  0.80237964920E+02 0.  0.
        5    1    3    3  502    0 -0.99960837930E+02 -0.75245171339E+02 -0.19809629988E+03  0.23434640803E+03  0.47000000000E+01 0. -1.
      -11    1    4    4    0    0  0.27915792595E+02 -0.15002947286E+02 -0.15088090258E+01  0.31727849094E+02  0.00000000000E+00 0.  1.
       12    1    4    4    0    0 -0.55259615418E+02 -0.14783524183E+02 -0.25107967220E+02  0.62470694740E+02  0.00000000000E+00 0. -1.
       -5    1    5    5    0  501  0.27608249526E+02  0.97320246610E+02 -0.92810407139E+01  0.10169401929E+03  0.47000000000E+01 0.  1.
        3    1    6    6  503    0  0.69653217044E+02 -0.19237852458E+02 -0.26479928497E+02  0.76960069029E+02  0.00000000000E+00 0. -1.
       -4    1    6    6    0  503  0.30043194183E+02  0.26949248655E+02 -0.80371438580E+02  0.89935664000E+02  0.00000000000E+00 0.  1.
</event>
<event>
12   0  0.1523332E-01  0.1757394E+03  0.7957747E-01  0.1177461E+00
       21   -1    0    0  501  503  0.00000000000E+00  0.00000000000E+00  0.18651886599E+03  0.18651886599E+03  0.00000000000E+00 0. -1.
       21   -1    0    0  503  504  0.00000000000E+00  0.00000000000E+00 -0.23794995419E+03  0.23794995419E+03  0.00000000000E+00 0. -1.
        6    2    1    2  501    0  0.22820888900E+02 -0.99875681359E+01  0.93215309694E+02  0.19893072420E+03  0.17396492342E+03 0.  0.
       24    2    3    3    0    0  0.55945831490E+02  0.26175620741E+02  0.90953275057E+01  0.10144585637E+03  0.79958974547E+02 0.  0.
       -6    2    1    2    0  504 -0.22820888900E+02  0.99875681359E+01 -0.14464639790E+03  0.22553809598E+03  0.17124341689E+03 0.  0.
      -24    2    5    5    0    0 -0.80336397015E+02  0.43270794301E+01 -0.10907646434E+03  0.15751321098E+03  0.80250085726E+02 0.  0.
        5    1    3    3  501    0 -0.33124942590E+02 -0.36163188877E+02  0.84119982188E+02  0.97484867824E+02  0.47000000000E+01 0. -1.
        4    1    4    4  502    0  0.25693241701E+02  0.27234521598E+01 -0.34711279388E+02  0.43271616304E+02  0.00000000000E+00 0. -1.
       -3    1    4    4    0  502  0.30252589789E+02  0.23452168581E+02  0.43806606894E+02  0.58174240069E+02  0.00000000000E+00 0.  1.
       -5    1    5    5    0  504  0.57515508115E+02  0.56604887058E+01 -0.35569933563E+02  0.68024885004E+02  0.47000000000E+01 0.  1.
       13    1    6    6    0    0 -0.41251168078E+02  0.23185320787E+02 -0.10344241101E+03  0.11375214444E+03  0.00000000000E+00 0. -1.
      -14    1    6    6    0    0 -0.39085228937E+02 -0.18858241357E+02 -0.56340533244E+01  0.43761066543E+02  0.00000000000E+00 0.  1.
</event>
<event>
12   0  0.1523332E-01  0.2700999E+03  0.7957747E-01  0.1108983E+00
       21   -1    0    0  504  503  0.00000000000E+00  0.00000000000E+00  0.36722927060E+03  0.36722927060E+03  0.00000000000E+00 0. -1.
       21   -1    0    0  501  504  0.00000000000E+00  0.00000000000E+00 -0.22113100251E+03  0.22113100251E+03  0.00000000000E+00 0.  1.
        6    2    1    2  501    0  0.19088874482E+03  0.80945770562E+02 -0.20872002946E+02  0.27081808876E+03  0.17296261452E+03 0.  0.
       24    2    3    3    0    0  0.15623272117E+03  0.11234929775E+03  0.17893252060E+02  0.20989144031E+03  0.81873196936E+02 0.  0.
       -6    2    1    2    0  503 -0.19088874482E+03 -0.80945770562E+02  0.16697027103E+03  0.31754218436E+03  0.17309892191E+03 0.  0.
      -24    2    5    5    0    0 -0.21089417226E+03 -0.68622848776E+02  0.12063613774E+03  0.26537885014E+03  0.81776580423E+02 0.  0.
        5    1    3    3  501    0  0.34656023653E+02 -0.31403527193E+02 -0.38765255006E+02  0.60926648449E+02  0.47000000000E+01 0. -1.
      -11    1    4    4    0    0  0.10824987703E+03  0.88642190780E+02 -0.23960774454E+02  0.14194926057E+03  0.00000000000E+00 0.  1.
       12    1    4    4    0    0  0.47982844137E+02  0.23707106975E+02  0.41854026514E+02  0.67942179741E+02  0.00000000000E+00 0. -1.
       -5    1    5    5    0  503  0.20005427438E+02 -0.12322921787E+02  0.46334133298E+02  0.52163334219E+02  0.47000000000E+01 0.  1.
        3    1    6    6  502    0 -0.26336784714E+02 -0.42398527743E+02  0.27735970034E+02  0.57101185781E+02  0.00000000000E+00 0. -1.
       -4    1    6    6    0  502 -0.18455738754E+03 -0.26224321033E+02  0.92900167702E+02  0.20827766436E+03  0.00000000000E+00 0.  1.
</event>
<event>
12   0  0.1523332E-01  0.1824003E+03  0.7957747E-01  0.1171202E+00
       21   -1    0    0  501  503  0.00000000000E+00  0.00000000000E+00  0.72713866015E+03  0.72713866015E+03  0.00000000000E+00 0. -1.
       21   -1    0    0  503  504  0.00000000000E+00  0.00000000000E+00 -0.50616505712E+02  0.50616505712E+02  0.00000000000E+00 0. -1.
        6    2    1    2  501    0  0.16465900471E+02 -0.57679267822E+02  0.21323041468E+03  0.27985044925E+03  0.17102935533E+03 0.  0.
       24    2    3    3    0    0  0.60051196278E+02 -0.62786871914E+02  0.20193349853E+03  0.23429305748E+03  0.81041726879E+02 0.  0.
       -6    2    1    2    0  504 -0.16465900471E+02  0.57679267822E+02  0.46329173975E+03  0.49790471661E+03  0.17225517956E+03 0.  0.
      -24    2    5    5    0    0  0.20448240559E+00 -0.17048760390E+02  0.35653179120E+03  0.36644386130E+03  0.82918534121E+02 0.  0.
        5    1    3    3  501    0 -0.43585295806E+02  0.51076040926E+01  0.11296916152E+02  0.45557391767E+02  0.47000000000E+01 0. -1.
      -11    1    4    4    0    0  0.49085347454E+02 -0.22842344560E+02  0.40451682322E+02  0.67583153540E+02  0.00000000000E+00 0.  1.
       12    1    4    4    0    0  0.10965848824E+02 -0.39944527354E+02  0.16148181621E+03  0.16670990394E+03  0.00000000000E+00 0. -1.
       -5    1    5    5    0  504 -0.16670382877E+02  0.74728028212E+02  0.10675994855E+03  0.13146085532E+03  0.47000000000E+01 0.  1.
        1    1    6    6  502    0  0.64917937592E+01  0.31800346594E+02  0.97171664507E+02  0.10244870820E+03  0.00000000000E+00 0. -1.
       -2    1    6    6    0  502 -0.62873113536E+01 -0.48849106984E+02  0.25936012669E+03  0.26399515309E+03  0.00000000000E+00 0.  1.
</event>
<event>
12   0  0.1523332E-01  0.2063948E+03  0.7957747E-01  0.1150875E+00
       21   -1    0    0  504  503  0.00000000000E+00  0.00000000000E+00  0.27826998081E+03  0.27826998081E+03  0.00000000000E+00 0.  1.
       21   -1    0    0  501  504  0.00000000000E+00  0.00000000000E+00 -0.17313074892E+03  0.17313074892E+03  0.00000000000E+00 0.  1.
        6    2    1    2  501    0  0.10764553087E+03 -0.33388906553E+02  0.12949647706E+03  0.24365581398E+03  0.17290586664E+03 0.  0.
       24    2    3    3    0    0  0.81481729435E+02 -0.53555754845E+02  0.18025236666E+02  0.12729785890E+03  0.79826966709E+02 0.  0.
       -6    2    1    2    0  503 -0.10764553087E+03  0.33388906553E+02 -0.24357245179E+02  0.20774491575E+03  0.17280710410E+03 0.  0.
      -24    2    5    5    0    0 -0.50686595741E+02  0.54247961665E+02  0.42211761005E+02  0.11756208448E+03  0.80790089783E+02 0.  0.
        5    1    3    3  501    0  0.26163801435E+02  0.20166848292E+02  0.11147124040E+03  0.11635795508E+03  0.47000000000E+01 0. -1.
        2    1    4    4  502    0  0.30101205611E+02 -0.63505674793E+02 -0.42781454805E+01  0.70408492662E+02  0.00000000000E+00 0. -1.
       -1    1    4    4    0  502  0.51380523824E+02  0.99499199479E+01  0.22303382146E+02  0.56889366235E+02  0.00000000000E+00 0.  1.
       -5    1    5    5    0  503 -0.56958935129E+02 -0.20859055111E+02 -0.66569006184E+02  0.90182831268E+02  0.47000000000E+01 0.  1.
       13    1    6    6    0    0  0.49315817836E+01  0.45167620194E+02  0.40991613596E+02  0.61194336324E+02  0.00000000000E+00 0. -1.
      -14    1    6    6    0    0 -0.55618177525E+02  0.90803414708E+01  0.12201474093E+01  0.56367748155E+02  0.00000000000E+00 0.  1.
</event>
</LesHouchesEvents>
